PSF EXT CMAP XPLOR

         2 !NTITLE
* GENERATED BY CHARMM-GUI FF-Converter
* DATE:   08/28/26   23:11:41

     34743 !NATOM
         1 PROA     1        LYS      N        NH3     -0.300000       14.0070           0
         2 PROA     1        LYS      HT1      HC       0.330000       1.00800           0
         3 PROA     1        LYS      HT2      HC       0.330000       1.00800           0
         4 PROA     1        LYS      HT3      HC       0.330000       1.00800           0
         5 PROA     1        LYS      CA       CT1      0.210000       12.0110           0
         6 PROA     1        LYS      HA       HB1      0.100000       1.00800           0
         7 PROA     1        LYS      CB       CT2     -0.180000       12.0110           0
         8 PROA     1        LYS      HB1      HA2      0.900000E-01   1.00800           0
         9 PROA     1        LYS      HB2      HA2      0.900000E-01   1.00800           0
        10 PROA     1        LYS      CG       CT2     -0.180000       12.0110           0
        11 PROA     1        LYS      HG1      HA2      0.900000E-01   1.00800           0
        12 PROA     1        LYS      HG2      HA2      0.900000E-01   1.00800           0
        13 PROA     1        LYS      CD       CT2     -0.180000       12.0110           0
        14 PROA     1        LYS      HD1      HA2      0.900000E-01   1.00800           0
        15 PROA     1        LYS      HD2      HA2      0.900000E-01   1.00800           0
        16 PROA     1        LYS      CE       CT2      0.210000       12.0110           0
        17 PROA     1        LYS      HE1      HA2      0.500000E-01   1.00800           0
        18 PROA     1        LYS      HE2      HA2      0.500000E-01   1.00800           0
        19 PROA     1        LYS      NZ       NH3     -0.300000       14.0070           0
        20 PROA     1        LYS      HZ1      HC       0.330000       1.00800           0
        21 PROA     1        LYS      HZ2      HC       0.330000       1.00800           0
        22 PROA     1        LYS      HZ3      HC       0.330000       1.00800           0
        23 PROA     1        LYS      C        CC       0.340000       12.0110           0
        24 PROA     1        LYS      OT1      OC      -0.670000       15.9994           0
        25 PROA     1        LYS      OT2      OC      -0.670000       15.9994           0
        26 PROB     2        LYS      N        NH3     -0.300000       14.0070           0
        27 PROB     2        LYS      HT1      HC       0.330000       1.00800           0
        28 PROB     2        LYS      HT2      HC       0.330000       1.00800           0
        29 PROB     2        LYS      HT3      HC       0.330000       1.00800           0
        30 PROB     2        LYS      CA       CT1      0.210000       12.0110           0
        31 PROB     2        LYS      HA       HB1      0.100000       1.00800           0
        32 PROB     2        LYS      CB       CT2     -0.180000       12.0110           0
        33 PROB     2        LYS      HB1      HA2      0.900000E-01   1.00800           0
        34 PROB     2        LYS      HB2      HA2      0.900000E-01   1.00800           0
        35 PROB     2        LYS      CG       CT2     -0.180000       12.0110           0
        36 PROB     2        LYS      HG1      HA2      0.900000E-01   1.00800           0
        37 PROB     2        LYS      HG2      HA2      0.900000E-01   1.00800           0
        38 PROB     2        LYS      CD       CT2     -0.180000       12.0110           0
        39 PROB     2        LYS      HD1      HA2      0.900000E-01   1.00800           0
        40 PROB     2        LYS      HD2      HA2      0.900000E-01   1.00800           0
        41 PROB     2        LYS      CE       CT2      0.210000       12.0110           0
        42 PROB     2        LYS      HE1      HA2      0.500000E-01   1.00800           0
        43 PROB     2        LYS      HE2      HA2      0.500000E-01   1.00800           0
        44 PROB     2        LYS      NZ       NH3     -0.300000       14.0070           0
        45 PROB     2        LYS      HZ1      HC       0.330000       1.00800           0
        46 PROB     2        LYS      HZ2      HC       0.330000       1.00800           0
        47 PROB     2        LYS      HZ3      HC       0.330000       1.00800           0
        48 PROB     2        LYS      C        CC       0.340000       12.0110           0
        49 PROB     2        LYS      OT1      OC      -0.670000       15.9994           0
        50 PROB     2        LYS      OT2      OC      -0.670000       15.9994           0
        51 PROC     3        ARG      N        NH3     -0.300000       14.0070           0
        52 PROC     3        ARG      HT1      HC       0.330000       1.00800           0
        53 PROC     3        ARG      HT2      HC       0.330000       1.00800           0
        54 PROC     3        ARG      HT3      HC       0.330000       1.00800           0
        55 PROC     3        ARG      CA       CT1      0.210000       12.0110           0
        56 PROC     3        ARG      HA       HB1      0.100000       1.00800           0
        57 PROC     3        ARG      CB       CT2     -0.180000       12.0110           0
        58 PROC     3        ARG      HB1      HA2      0.900000E-01   1.00800           0
        59 PROC     3        ARG      HB2      HA2      0.900000E-01   1.00800           0
        60 PROC     3        ARG      CG       CT2     -0.180000       12.0110           0
        61 PROC     3        ARG      HG1      HA2      0.900000E-01   1.00800           0
        62 PROC     3        ARG      HG2      HA2      0.900000E-01   1.00800           0
        63 PROC     3        ARG      CD       CT2      0.200000       12.0110           0
        64 PROC     3        ARG      HD1      HA2      0.900000E-01   1.00800           0
        65 PROC     3        ARG      HD2      HA2      0.900000E-01   1.00800           0
        66 PROC     3        ARG      NE       NC2     -0.700000       14.0070           0
        67 PROC     3        ARG      HE       HC       0.440000       1.00800           0
        68 PROC     3        ARG      CZ       C        0.640000       12.0110           0
        69 PROC     3        ARG      NH1      NC2     -0.800000       14.0070           0
        70 PROC     3        ARG      HH11     HC       0.460000       1.00800           0
        71 PROC     3        ARG      HH12     HC       0.460000       1.00800           0
        72 PROC     3        ARG      NH2      NC2     -0.800000       14.0070           0
        73 PROC     3        ARG      HH21     HC       0.460000       1.00800           0
        74 PROC     3        ARG      HH22     HC       0.460000       1.00800           0
        75 PROC     3        ARG      C        CC       0.340000       12.0110           0
        76 PROC     3        ARG      OT1      OC      -0.670000       15.9994           0
        77 PROC     3        ARG      OT2      OC      -0.670000       15.9994           0
        78 PROD     4        PRO      N        NP      -0.700000E-01   14.0070           0
        79 PROD     4        PRO      HN1      HC       0.240000       1.00800           0
        80 PROD     4        PRO      HN2      HC       0.240000       1.00800           0
        81 PROD     4        PRO      CD       CP3      0.160000       12.0110           0
        82 PROD     4        PRO      HD1      HA2      0.900000E-01   1.00800           0
        83 PROD     4        PRO      HD2      HA2      0.900000E-01   1.00800           0
        84 PROD     4        PRO      CA       CP1      0.160000       12.0110           0
        85 PROD     4        PRO      HA       HB1      0.900000E-01   1.00800           0
        86 PROD     4        PRO      CB       CP2     -0.180000       12.0110           0
        87 PROD     4        PRO      HB1      HA2      0.900000E-01   1.00800           0
        88 PROD     4        PRO      HB2      HA2      0.900000E-01   1.00800           0
        89 PROD     4        PRO      CG       CP2     -0.180000       12.0110           0
        90 PROD     4        PRO      HG1      HA2      0.900000E-01   1.00800           0
        91 PROD     4        PRO      HG2      HA2      0.900000E-01   1.00800           0
        92 PROD     4        PRO      C        CC       0.340000       12.0110           0
        93 PROD     4        PRO      OT1      OC      -0.670000       15.9994           0
        94 PROD     4        PRO      OT2      OC      -0.670000       15.9994           0
        95 PROE     5        LYS      N        NH3     -0.300000       14.0070           0
        96 PROE     5        LYS      HT1      HC       0.330000       1.00800           0
        97 PROE     5        LYS      HT2      HC       0.330000       1.00800           0
        98 PROE     5        LYS      HT3      HC       0.330000       1.00800           0
        99 PROE     5        LYS      CA       CT1      0.210000       12.0110           0
       100 PROE     5        LYS      HA       HB1      0.100000       1.00800           0
       101 PROE     5        LYS      CB       CT2     -0.180000       12.0110           0
       102 PROE     5        LYS      HB1      HA2      0.900000E-01   1.00800           0
       103 PROE     5        LYS      HB2      HA2      0.900000E-01   1.00800           0
       104 PROE     5        LYS      CG       CT2     -0.180000       12.0110           0
       105 PROE     5        LYS      HG1      HA2      0.900000E-01   1.00800           0
       106 PROE     5        LYS      HG2      HA2      0.900000E-01   1.00800           0
       107 PROE     5        LYS      CD       CT2     -0.180000       12.0110           0
       108 PROE     5        LYS      HD1      HA2      0.900000E-01   1.00800           0
       109 PROE     5        LYS      HD2      HA2      0.900000E-01   1.00800           0
       110 PROE     5        LYS      CE       CT2      0.210000       12.0110           0
       111 PROE     5        LYS      HE1      HA2      0.500000E-01   1.00800           0
       112 PROE     5        LYS      HE2      HA2      0.500000E-01   1.00800           0
       113 PROE     5        LYS      NZ       NH3     -0.300000       14.0070           0
       114 PROE     5        LYS      HZ1      HC       0.330000       1.00800           0
       115 PROE     5        LYS      HZ2      HC       0.330000       1.00800           0
       116 PROE     5        LYS      HZ3      HC       0.330000       1.00800           0
       117 PROE     5        LYS      C        CC       0.340000       12.0110           0
       118 PROE     5        LYS      OT1      OC      -0.670000       15.9994           0
       119 PROE     5        LYS      OT2      OC      -0.670000       15.9994           0
       120 PROF     6        PRO      N        NP      -0.700000E-01   14.0070           0
       121 PROF     6        PRO      HN1      HC       0.240000       1.00800           0
       122 PROF     6        PRO      HN2      HC       0.240000       1.00800           0
       123 PROF     6        PRO      CD       CP3      0.160000       12.0110           0
       124 PROF     6        PRO      HD1      HA2      0.900000E-01   1.00800           0
       125 PROF     6        PRO      HD2      HA2      0.900000E-01   1.00800           0
       126 PROF     6        PRO      CA       CP1      0.160000       12.0110           0
       127 PROF     6        PRO      HA       HB1      0.900000E-01   1.00800           0
       128 PROF     6        PRO      CB       CP2     -0.180000       12.0110           0
       129 PROF     6        PRO      HB1      HA2      0.900000E-01   1.00800           0
       130 PROF     6        PRO      HB2      HA2      0.900000E-01   1.00800           0
       131 PROF     6        PRO      CG       CP2     -0.180000       12.0110           0
       132 PROF     6        PRO      HG1      HA2      0.900000E-01   1.00800           0
       133 PROF     6        PRO      HG2      HA2      0.900000E-01   1.00800           0
       134 PROF     6        PRO      C        CC       0.340000       12.0110           0
       135 PROF     6        PRO      OT1      OC      -0.670000       15.9994           0
       136 PROF     6        PRO      OT2      OC      -0.670000       15.9994           0
       137 MEMB     1        POPC     N        NTL     -0.600000       14.0070           0
       138 MEMB     1        POPC     C12      CTL2    -0.100000       12.0110           0
       139 MEMB     1        POPC     H12A     HL       0.250000       1.00800           0
       140 MEMB     1        POPC     H12B     HL       0.250000       1.00800           0
       141 MEMB     1        POPC     C13      CTL5    -0.350000       12.0110           0
       142 MEMB     1        POPC     H13A     HL       0.250000       1.00800           0
       143 MEMB     1        POPC     H13B     HL       0.250000       1.00800           0
       144 MEMB     1        POPC     H13C     HL       0.250000       1.00800           0
       145 MEMB     1        POPC     C14      CTL5    -0.350000       12.0110           0
       146 MEMB     1        POPC     H14A     HL       0.250000       1.00800           0
       147 MEMB     1        POPC     H14B     HL       0.250000       1.00800           0
       148 MEMB     1        POPC     H14C     HL       0.250000       1.00800           0
       149 MEMB     1        POPC     C15      CTL5    -0.350000       12.0110           0
       150 MEMB     1        POPC     H15A     HL       0.250000       1.00800           0
       151 MEMB     1        POPC     H15B     HL       0.250000       1.00800           0
       152 MEMB     1        POPC     H15C     HL       0.250000       1.00800           0
       153 MEMB     1        POPC     C11      CTL2    -0.800000E-01   12.0110           0
       154 MEMB     1        POPC     H11A     HAL2     0.900000E-01   1.00800           0
       155 MEMB     1        POPC     H11B     HAL2     0.900000E-01   1.00800           0
       156 MEMB     1        POPC     P        PL       1.500000       30.9740           0
       157 MEMB     1        POPC     O13      O2L     -0.780000       15.9994           0
       158 MEMB     1        POPC     O14      O2L     -0.780000       15.9994           0
       159 MEMB     1        POPC     O12      OSLP    -0.570000       15.9994           0
       160 MEMB     1        POPC     O11      OSLP    -0.570000       15.9994           0
       161 MEMB     1        POPC     C1       CTL2    -0.800000E-01   12.0110           0
       162 MEMB     1        POPC     HA       HAL2     0.900000E-01   1.00800           0
       163 MEMB     1        POPC     HB       HAL2     0.900000E-01   1.00800           0
       164 MEMB     1        POPC     C2       CTL1     0.170000       12.0110           0
       165 MEMB     1        POPC     HS       HAL1     0.900000E-01   1.00800           0
       166 MEMB     1        POPC     O21      OSL     -0.490000       15.9994           0
       167 MEMB     1        POPC     C21      CL       0.900000       12.0110           0
       168 MEMB     1        POPC     O22      OBL     -0.630000       15.9994           0
       169 MEMB     1        POPC     C22      CTL2    -0.220000       12.0110           0
       170 MEMB     1        POPC     H2R      HAL2     0.900000E-01   1.00800           0
       171 MEMB     1        POPC     H2S      HAL2     0.900000E-01   1.00800           0
       172 MEMB     1        POPC     C3       CTL2     0.800000E-01   12.0110           0
       173 MEMB     1        POPC     HX       HAL2     0.900000E-01   1.00800           0
       174 MEMB     1        POPC     HY       HAL2     0.900000E-01   1.00800           0
       175 MEMB     1        POPC     O31      OSL     -0.490000       15.9994           0
       176 MEMB     1        POPC     C31      CL       0.900000       12.0110           0
       177 MEMB     1        POPC     O32      OBL     -0.630000       15.9994           0
       178 MEMB     1        POPC     C32      CTL2    -0.220000       12.0110           0
       179 MEMB     1        POPC     H2X      HAL2     0.900000E-01   1.00800           0
       180 MEMB     1        POPC     H2Y      HAL2     0.900000E-01   1.00800           0
       181 MEMB     1        POPC     C23      CTL2    -0.180000       12.0110           0
       182 MEMB     1        POPC     H3R      HAL2     0.900000E-01   1.00800           0
       183 MEMB     1        POPC     H3S      HAL2     0.900000E-01   1.00800           0
       184 MEMB     1        POPC     C24      CTL2    -0.180000       12.0110           0
       185 MEMB     1        POPC     H4R      HAL2     0.900000E-01   1.00800           0
       186 MEMB     1        POPC     H4S      HAL2     0.900000E-01   1.00800           0
       187 MEMB     1        POPC     C25      CTL2    -0.180000       12.0110           0
       188 MEMB     1        POPC     H5R      HAL2     0.900000E-01   1.00800           0
       189 MEMB     1        POPC     H5S      HAL2     0.900000E-01   1.00800           0
       190 MEMB     1        POPC     C26      CTL2    -0.180000       12.0110           0
       191 MEMB     1        POPC     H6R      HAL2     0.900000E-01   1.00800           0
       192 MEMB     1        POPC     H6S      HAL2     0.900000E-01   1.00800           0
       193 MEMB     1        POPC     C27      CTL2    -0.180000       12.0110           0
       194 MEMB     1        POPC     H7R      HAL2     0.900000E-01   1.00800           0
       195 MEMB     1        POPC     H7S      HAL2     0.900000E-01   1.00800           0
       196 MEMB     1        POPC     C28      CTL2    -0.180000       12.0110           0
       197 MEMB     1        POPC     H8R      HAL2     0.900000E-01   1.00800           0
       198 MEMB     1        POPC     H8S      HAL2     0.900000E-01   1.00800           0
       199 MEMB     1        POPC     C29      CEL1    -0.150000       12.0110           0
       200 MEMB     1        POPC     H91      HEL1     0.150000       1.00800           0
       201 MEMB     1        POPC     C210     CEL1    -0.150000       12.0110           0
       202 MEMB     1        POPC     H101     HEL1     0.150000       1.00800           0
       203 MEMB     1        POPC     C211     CTL2    -0.180000       12.0110           0
       204 MEMB     1        POPC     H11R     HAL2     0.900000E-01   1.00800           0
       205 MEMB     1        POPC     H11S     HAL2     0.900000E-01   1.00800           0
       206 MEMB     1        POPC     C212     CTL2    -0.180000       12.0110           0
       207 MEMB     1        POPC     H12R     HAL2     0.900000E-01   1.00800           0
       208 MEMB     1        POPC     H12S     HAL2     0.900000E-01   1.00800           0
       209 MEMB     1        POPC     C213     CTL2    -0.180000       12.0110           0
       210 MEMB     1        POPC     H13R     HAL2     0.900000E-01   1.00800           0
       211 MEMB     1        POPC     H13S     HAL2     0.900000E-01   1.00800           0
       212 MEMB     1        POPC     C214     CTL2    -0.180000       12.0110           0
       213 MEMB     1        POPC     H14R     HAL2     0.900000E-01   1.00800           0
       214 MEMB     1        POPC     H14S     HAL2     0.900000E-01   1.00800           0
       215 MEMB     1        POPC     C215     CTL2    -0.180000       12.0110           0
       216 MEMB     1        POPC     H15R     HAL2     0.900000E-01   1.00800           0
       217 MEMB     1        POPC     H15S     HAL2     0.900000E-01   1.00800           0
       218 MEMB     1        POPC     C216     CTL2    -0.180000       12.0110           0
       219 MEMB     1        POPC     H16R     HAL2     0.900000E-01   1.00800           0
       220 MEMB     1        POPC     H16S     HAL2     0.900000E-01   1.00800           0
       221 MEMB     1        POPC     C217     CTL2    -0.180000       12.0110           0
       222 MEMB     1        POPC     H17R     HAL2     0.900000E-01   1.00800           0
       223 MEMB     1        POPC     H17S     HAL2     0.900000E-01   1.00800           0
       224 MEMB     1        POPC     C218     CTL3    -0.270000       12.0110           0
       225 MEMB     1        POPC     H18R     HAL3     0.900000E-01   1.00800           0
       226 MEMB     1        POPC     H18S     HAL3     0.900000E-01   1.00800           0
       227 MEMB     1        POPC     H18T     HAL3     0.900000E-01   1.00800           0
       228 MEMB     1        POPC     C33      CTL2    -0.180000       12.0110           0
       229 MEMB     1        POPC     H3X      HAL2     0.900000E-01   1.00800           0
       230 MEMB     1        POPC     H3Y      HAL2     0.900000E-01   1.00800           0
       231 MEMB     1        POPC     C34      CTL2    -0.180000       12.0110           0
       232 MEMB     1        POPC     H4X      HAL2     0.900000E-01   1.00800           0
       233 MEMB     1        POPC     H4Y      HAL2     0.900000E-01   1.00800           0
       234 MEMB     1        POPC     C35      CTL2    -0.180000       12.0110           0
       235 MEMB     1        POPC     H5X      HAL2     0.900000E-01   1.00800           0
       236 MEMB     1        POPC     H5Y      HAL2     0.900000E-01   1.00800           0
       237 MEMB     1        POPC     C36      CTL2    -0.180000       12.0110           0
       238 MEMB     1        POPC     H6X      HAL2     0.900000E-01   1.00800           0
       239 MEMB     1        POPC     H6Y      HAL2     0.900000E-01   1.00800           0
       240 MEMB     1        POPC     C37      CTL2    -0.180000       12.0110           0
       241 MEMB     1        POPC     H7X      HAL2     0.900000E-01   1.00800           0
       242 MEMB     1        POPC     H7Y      HAL2     0.900000E-01   1.00800           0
       243 MEMB     1        POPC     C38      CTL2    -0.180000       12.0110           0
       244 MEMB     1        POPC     H8X      HAL2     0.900000E-01   1.00800           0
       245 MEMB     1        POPC     H8Y      HAL2     0.900000E-01   1.00800           0
       246 MEMB     1        POPC     C39      CTL2    -0.180000       12.0110           0
       247 MEMB     1        POPC     H9X      HAL2     0.900000E-01   1.00800           0
       248 MEMB     1        POPC     H9Y      HAL2     0.900000E-01   1.00800           0
       249 MEMB     1        POPC     C310     CTL2    -0.180000       12.0110           0
       250 MEMB     1        POPC     H10X     HAL2     0.900000E-01   1.00800           0
       251 MEMB     1        POPC     H10Y     HAL2     0.900000E-01   1.00800           0
       252 MEMB     1        POPC     C311     CTL2    -0.180000       12.0110           0
       253 MEMB     1        POPC     H11X     HAL2     0.900000E-01   1.00800           0
       254 MEMB     1        POPC     H11Y     HAL2     0.900000E-01   1.00800           0
       255 MEMB     1        POPC     C312     CTL2    -0.180000       12.0110           0
       256 MEMB     1        POPC     H12X     HAL2     0.900000E-01   1.00800           0
       257 MEMB     1        POPC     H12Y     HAL2     0.900000E-01   1.00800           0
       258 MEMB     1        POPC     C313     CTL2    -0.180000       12.0110           0
       259 MEMB     1        POPC     H13X     HAL2     0.900000E-01   1.00800           0
       260 MEMB     1        POPC     H13Y     HAL2     0.900000E-01   1.00800           0
       261 MEMB     1        POPC     C314     CTL2    -0.180000       12.0110           0
       262 MEMB     1        POPC     H14X     HAL2     0.900000E-01   1.00800           0
       263 MEMB     1        POPC     H14Y     HAL2     0.900000E-01   1.00800           0
       264 MEMB     1        POPC     C315     CTL2    -0.180000       12.0110           0
       265 MEMB     1        POPC     H15X     HAL2     0.900000E-01   1.00800           0
       266 MEMB     1        POPC     H15Y     HAL2     0.900000E-01   1.00800           0
       267 MEMB     1        POPC     C316     CTL3    -0.270000       12.0110           0
       268 MEMB     1        POPC     H16X     HAL3     0.900000E-01   1.00800           0
       269 MEMB     1        POPC     H16Y     HAL3     0.900000E-01   1.00800           0
       270 MEMB     1        POPC     H16Z     HAL3     0.900000E-01   1.00800           0
       271 MEMB     2        POPC     N        NTL     -0.600000       14.0070           0
       272 MEMB     2        POPC     C12      CTL2    -0.100000       12.0110           0
       273 MEMB     2        POPC     H12A     HL       0.250000       1.00800           0
       274 MEMB     2        POPC     H12B     HL       0.250000       1.00800           0
       275 MEMB     2        POPC     C13      CTL5    -0.350000       12.0110           0
       276 MEMB     2        POPC     H13A     HL       0.250000       1.00800           0
       277 MEMB     2        POPC     H13B     HL       0.250000       1.00800           0
       278 MEMB     2        POPC     H13C     HL       0.250000       1.00800           0
       279 MEMB     2        POPC     C14      CTL5    -0.350000       12.0110           0
       280 MEMB     2        POPC     H14A     HL       0.250000       1.00800           0
       281 MEMB     2        POPC     H14B     HL       0.250000       1.00800           0
       282 MEMB     2        POPC     H14C     HL       0.250000       1.00800           0
       283 MEMB     2        POPC     C15      CTL5    -0.350000       12.0110           0
       284 MEMB     2        POPC     H15A     HL       0.250000       1.00800           0
       285 MEMB     2        POPC     H15B     HL       0.250000       1.00800           0
       286 MEMB     2        POPC     H15C     HL       0.250000       1.00800           0
       287 MEMB     2        POPC     C11      CTL2    -0.800000E-01   12.0110           0
       288 MEMB     2        POPC     H11A     HAL2     0.900000E-01   1.00800           0
       289 MEMB     2        POPC     H11B     HAL2     0.900000E-01   1.00800           0
       290 MEMB     2        POPC     P        PL       1.500000       30.9740           0
       291 MEMB     2        POPC     O13      O2L     -0.780000       15.9994           0
       292 MEMB     2        POPC     O14      O2L     -0.780000       15.9994           0
       293 MEMB     2        POPC     O12      OSLP    -0.570000       15.9994           0
       294 MEMB     2        POPC     O11      OSLP    -0.570000       15.9994           0
       295 MEMB     2        POPC     C1       CTL2    -0.800000E-01   12.0110           0
       296 MEMB     2        POPC     HA       HAL2     0.900000E-01   1.00800           0
       297 MEMB     2        POPC     HB       HAL2     0.900000E-01   1.00800           0
       298 MEMB     2        POPC     C2       CTL1     0.170000       12.0110           0
       299 MEMB     2        POPC     HS       HAL1     0.900000E-01   1.00800           0
       300 MEMB     2        POPC     O21      OSL     -0.490000       15.9994           0
       301 MEMB     2        POPC     C21      CL       0.900000       12.0110           0
       302 MEMB     2        POPC     O22      OBL     -0.630000       15.9994           0
       303 MEMB     2        POPC     C22      CTL2    -0.220000       12.0110           0
       304 MEMB     2        POPC     H2R      HAL2     0.900000E-01   1.00800           0
       305 MEMB     2        POPC     H2S      HAL2     0.900000E-01   1.00800           0
       306 MEMB     2        POPC     C3       CTL2     0.800000E-01   12.0110           0
       307 MEMB     2        POPC     HX       HAL2     0.900000E-01   1.00800           0
       308 MEMB     2        POPC     HY       HAL2     0.900000E-01   1.00800           0
       309 MEMB     2        POPC     O31      OSL     -0.490000       15.9994           0
       310 MEMB     2        POPC     C31      CL       0.900000       12.0110           0
       311 MEMB     2        POPC     O32      OBL     -0.630000       15.9994           0
       312 MEMB     2        POPC     C32      CTL2    -0.220000       12.0110           0
       313 MEMB     2        POPC     H2X      HAL2     0.900000E-01   1.00800           0
       314 MEMB     2        POPC     H2Y      HAL2     0.900000E-01   1.00800           0
       315 MEMB     2        POPC     C23      CTL2    -0.180000       12.0110           0
       316 MEMB     2        POPC     H3R      HAL2     0.900000E-01   1.00800           0
       317 MEMB     2        POPC     H3S      HAL2     0.900000E-01   1.00800           0
       318 MEMB     2        POPC     C24      CTL2    -0.180000       12.0110           0
       319 MEMB     2        POPC     H4R      HAL2     0.900000E-01   1.00800           0
       320 MEMB     2        POPC     H4S      HAL2     0.900000E-01   1.00800           0
       321 MEMB     2        POPC     C25      CTL2    -0.180000       12.0110           0
       322 MEMB     2        POPC     H5R      HAL2     0.900000E-01   1.00800           0
       323 MEMB     2        POPC     H5S      HAL2     0.900000E-01   1.00800           0
       324 MEMB     2        POPC     C26      CTL2    -0.180000       12.0110           0
       325 MEMB     2        POPC     H6R      HAL2     0.900000E-01   1.00800           0
       326 MEMB     2        POPC     H6S      HAL2     0.900000E-01   1.00800           0
       327 MEMB     2        POPC     C27      CTL2    -0.180000       12.0110           0
       328 MEMB     2        POPC     H7R      HAL2     0.900000E-01   1.00800           0
       329 MEMB     2        POPC     H7S      HAL2     0.900000E-01   1.00800           0
       330 MEMB     2        POPC     C28      CTL2    -0.180000       12.0110           0
       331 MEMB     2        POPC     H8R      HAL2     0.900000E-01   1.00800           0
       332 MEMB     2        POPC     H8S      HAL2     0.900000E-01   1.00800           0
       333 MEMB     2        POPC     C29      CEL1    -0.150000       12.0110           0
       334 MEMB     2        POPC     H91      HEL1     0.150000       1.00800           0
       335 MEMB     2        POPC     C210     CEL1    -0.150000       12.0110           0
       336 MEMB     2        POPC     H101     HEL1     0.150000       1.00800           0
       337 MEMB     2        POPC     C211     CTL2    -0.180000       12.0110           0
       338 MEMB     2        POPC     H11R     HAL2     0.900000E-01   1.00800           0
       339 MEMB     2        POPC     H11S     HAL2     0.900000E-01   1.00800           0
       340 MEMB     2        POPC     C212     CTL2    -0.180000       12.0110           0
       341 MEMB     2        POPC     H12R     HAL2     0.900000E-01   1.00800           0
       342 MEMB     2        POPC     H12S     HAL2     0.900000E-01   1.00800           0
       343 MEMB     2        POPC     C213     CTL2    -0.180000       12.0110           0
       344 MEMB     2        POPC     H13R     HAL2     0.900000E-01   1.00800           0
       345 MEMB     2        POPC     H13S     HAL2     0.900000E-01   1.00800           0
       346 MEMB     2        POPC     C214     CTL2    -0.180000       12.0110           0
       347 MEMB     2        POPC     H14R     HAL2     0.900000E-01   1.00800           0
       348 MEMB     2        POPC     H14S     HAL2     0.900000E-01   1.00800           0
       349 MEMB     2        POPC     C215     CTL2    -0.180000       12.0110           0
       350 MEMB     2        POPC     H15R     HAL2     0.900000E-01   1.00800           0
       351 MEMB     2        POPC     H15S     HAL2     0.900000E-01   1.00800           0
       352 MEMB     2        POPC     C216     CTL2    -0.180000       12.0110           0
       353 MEMB     2        POPC     H16R     HAL2     0.900000E-01   1.00800           0
       354 MEMB     2        POPC     H16S     HAL2     0.900000E-01   1.00800           0
       355 MEMB     2        POPC     C217     CTL2    -0.180000       12.0110           0
       356 MEMB     2        POPC     H17R     HAL2     0.900000E-01   1.00800           0
       357 MEMB     2        POPC     H17S     HAL2     0.900000E-01   1.00800           0
       358 MEMB     2        POPC     C218     CTL3    -0.270000       12.0110           0
       359 MEMB     2        POPC     H18R     HAL3     0.900000E-01   1.00800           0
       360 MEMB     2        POPC     H18S     HAL3     0.900000E-01   1.00800           0
       361 MEMB     2        POPC     H18T     HAL3     0.900000E-01   1.00800           0
       362 MEMB     2        POPC     C33      CTL2    -0.180000       12.0110           0
       363 MEMB     2        POPC     H3X      HAL2     0.900000E-01   1.00800           0
       364 MEMB     2        POPC     H3Y      HAL2     0.900000E-01   1.00800           0
       365 MEMB     2        POPC     C34      CTL2    -0.180000       12.0110           0
       366 MEMB     2        POPC     H4X      HAL2     0.900000E-01   1.00800           0
       367 MEMB     2        POPC     H4Y      HAL2     0.900000E-01   1.00800           0
       368 MEMB     2        POPC     C35      CTL2    -0.180000       12.0110           0
       369 MEMB     2        POPC     H5X      HAL2     0.900000E-01   1.00800           0
       370 MEMB     2        POPC     H5Y      HAL2     0.900000E-01   1.00800           0
       371 MEMB     2        POPC     C36      CTL2    -0.180000       12.0110           0
       372 MEMB     2        POPC     H6X      HAL2     0.900000E-01   1.00800           0
       373 MEMB     2        POPC     H6Y      HAL2     0.900000E-01   1.00800           0
       374 MEMB     2        POPC     C37      CTL2    -0.180000       12.0110           0
       375 MEMB     2        POPC     H7X      HAL2     0.900000E-01   1.00800           0
       376 MEMB     2        POPC     H7Y      HAL2     0.900000E-01   1.00800           0
       377 MEMB     2        POPC     C38      CTL2    -0.180000       12.0110           0
       378 MEMB     2        POPC     H8X      HAL2     0.900000E-01   1.00800           0
       379 MEMB     2        POPC     H8Y      HAL2     0.900000E-01   1.00800           0
       380 MEMB     2        POPC     C39      CTL2    -0.180000       12.0110           0
       381 MEMB     2        POPC     H9X      HAL2     0.900000E-01   1.00800           0
       382 MEMB     2        POPC     H9Y      HAL2     0.900000E-01   1.00800           0
       383 MEMB     2        POPC     C310     CTL2    -0.180000       12.0110           0
       384 MEMB     2        POPC     H10X     HAL2     0.900000E-01   1.00800           0
       385 MEMB     2        POPC     H10Y     HAL2     0.900000E-01   1.00800           0
       386 MEMB     2        POPC     C311     CTL2    -0.180000       12.0110           0
       387 MEMB     2        POPC     H11X     HAL2     0.900000E-01   1.00800           0
       388 MEMB     2        POPC     H11Y     HAL2     0.900000E-01   1.00800           0
       389 MEMB     2        POPC     C312     CTL2    -0.180000       12.0110           0
       390 MEMB     2        POPC     H12X     HAL2     0.900000E-01   1.00800           0
       391 MEMB     2        POPC     H12Y     HAL2     0.900000E-01   1.00800           0
       392 MEMB     2        POPC     C313     CTL2    -0.180000       12.0110           0
       393 MEMB     2        POPC     H13X     HAL2     0.900000E-01   1.00800           0
       394 MEMB     2        POPC     H13Y     HAL2     0.900000E-01   1.00800           0
       395 MEMB     2        POPC     C314     CTL2    -0.180000       12.0110           0
       396 MEMB     2        POPC     H14X     HAL2     0.900000E-01   1.00800           0
       397 MEMB     2        POPC     H14Y     HAL2     0.900000E-01   1.00800           0
       398 MEMB     2        POPC     C315     CTL2    -0.180000       12.0110           0
       399 MEMB     2        POPC     H15X     HAL2     0.900000E-01   1.00800           0
       400 MEMB     2        POPC     H15Y     HAL2     0.900000E-01   1.00800           0
       401 MEMB     2        POPC     C316     CTL3    -0.270000       12.0110           0
       402 MEMB     2        POPC     H16X     HAL3     0.900000E-01   1.00800           0
       403 MEMB     2        POPC     H16Y     HAL3     0.900000E-01   1.00800           0
       404 MEMB     2        POPC     H16Z     HAL3     0.900000E-01   1.00800           0
       405 MEMB     3        POPC     N        NTL     -0.600000       14.0070           0
       406 MEMB     3        POPC     C12      CTL2    -0.100000       12.0110           0
       407 MEMB     3        POPC     H12A     HL       0.250000       1.00800           0
       408 MEMB     3        POPC     H12B     HL       0.250000       1.00800           0
       409 MEMB     3        POPC     C13      CTL5    -0.350000       12.0110           0
       410 MEMB     3        POPC     H13A     HL       0.250000       1.00800           0
       411 MEMB     3        POPC     H13B     HL       0.250000       1.00800           0
       412 MEMB     3        POPC     H13C     HL       0.250000       1.00800           0
       413 MEMB     3        POPC     C14      CTL5    -0.350000       12.0110           0
       414 MEMB     3        POPC     H14A     HL       0.250000       1.00800           0
       415 MEMB     3        POPC     H14B     HL       0.250000       1.00800           0
       416 MEMB     3        POPC     H14C     HL       0.250000       1.00800           0
       417 MEMB     3        POPC     C15      CTL5    -0.350000       12.0110           0
       418 MEMB     3        POPC     H15A     HL       0.250000       1.00800           0
       419 MEMB     3        POPC     H15B     HL       0.250000       1.00800           0
       420 MEMB     3        POPC     H15C     HL       0.250000       1.00800           0
       421 MEMB     3        POPC     C11      CTL2    -0.800000E-01   12.0110           0
       422 MEMB     3        POPC     H11A     HAL2     0.900000E-01   1.00800           0
       423 MEMB     3        POPC     H11B     HAL2     0.900000E-01   1.00800           0
       424 MEMB     3        POPC     P        PL       1.500000       30.9740           0
       425 MEMB     3        POPC     O13      O2L     -0.780000       15.9994           0
       426 MEMB     3        POPC     O14      O2L     -0.780000       15.9994           0
       427 MEMB     3        POPC     O12      OSLP    -0.570000       15.9994           0
       428 MEMB     3        POPC     O11      OSLP    -0.570000       15.9994           0
       429 MEMB     3        POPC     C1       CTL2    -0.800000E-01   12.0110           0
       430 MEMB     3        POPC     HA       HAL2     0.900000E-01   1.00800           0
       431 MEMB     3        POPC     HB       HAL2     0.900000E-01   1.00800           0
       432 MEMB     3        POPC     C2       CTL1     0.170000       12.0110           0
       433 MEMB     3        POPC     HS       HAL1     0.900000E-01   1.00800           0
       434 MEMB     3        POPC     O21      OSL     -0.490000       15.9994           0
       435 MEMB     3        POPC     C21      CL       0.900000       12.0110           0
       436 MEMB     3        POPC     O22      OBL     -0.630000       15.9994           0
       437 MEMB     3        POPC     C22      CTL2    -0.220000       12.0110           0
       438 MEMB     3        POPC     H2R      HAL2     0.900000E-01   1.00800           0
       439 MEMB     3        POPC     H2S      HAL2     0.900000E-01   1.00800           0
       440 MEMB     3        POPC     C3       CTL2     0.800000E-01   12.0110           0
       441 MEMB     3        POPC     HX       HAL2     0.900000E-01   1.00800           0
       442 MEMB     3        POPC     HY       HAL2     0.900000E-01   1.00800           0
       443 MEMB     3        POPC     O31      OSL     -0.490000       15.9994           0
       444 MEMB     3        POPC     C31      CL       0.900000       12.0110           0
       445 MEMB     3        POPC     O32      OBL     -0.630000       15.9994           0
       446 MEMB     3        POPC     C32      CTL2    -0.220000       12.0110           0
       447 MEMB     3        POPC     H2X      HAL2     0.900000E-01   1.00800           0
       448 MEMB     3        POPC     H2Y      HAL2     0.900000E-01   1.00800           0
       449 MEMB     3        POPC     C23      CTL2    -0.180000       12.0110           0
       450 MEMB     3        POPC     H3R      HAL2     0.900000E-01   1.00800           0
       451 MEMB     3        POPC     H3S      HAL2     0.900000E-01   1.00800           0
       452 MEMB     3        POPC     C24      CTL2    -0.180000       12.0110           0
       453 MEMB     3        POPC     H4R      HAL2     0.900000E-01   1.00800           0
       454 MEMB     3        POPC     H4S      HAL2     0.900000E-01   1.00800           0
       455 MEMB     3        POPC     C25      CTL2    -0.180000       12.0110           0
       456 MEMB     3        POPC     H5R      HAL2     0.900000E-01   1.00800           0
       457 MEMB     3        POPC     H5S      HAL2     0.900000E-01   1.00800           0
       458 MEMB     3        POPC     C26      CTL2    -0.180000       12.0110           0
       459 MEMB     3        POPC     H6R      HAL2     0.900000E-01   1.00800           0
       460 MEMB     3        POPC     H6S      HAL2     0.900000E-01   1.00800           0
       461 MEMB     3        POPC     C27      CTL2    -0.180000       12.0110           0
       462 MEMB     3        POPC     H7R      HAL2     0.900000E-01   1.00800           0
       463 MEMB     3        POPC     H7S      HAL2     0.900000E-01   1.00800           0
       464 MEMB     3        POPC     C28      CTL2    -0.180000       12.0110           0
       465 MEMB     3        POPC     H8R      HAL2     0.900000E-01   1.00800           0
       466 MEMB     3        POPC     H8S      HAL2     0.900000E-01   1.00800           0
       467 MEMB     3        POPC     C29      CEL1    -0.150000       12.0110           0
       468 MEMB     3        POPC     H91      HEL1     0.150000       1.00800           0
       469 MEMB     3        POPC     C210     CEL1    -0.150000       12.0110           0
       470 MEMB     3        POPC     H101     HEL1     0.150000       1.00800           0
       471 MEMB     3        POPC     C211     CTL2    -0.180000       12.0110           0
       472 MEMB     3        POPC     H11R     HAL2     0.900000E-01   1.00800           0
       473 MEMB     3        POPC     H11S     HAL2     0.900000E-01   1.00800           0
       474 MEMB     3        POPC     C212     CTL2    -0.180000       12.0110           0
       475 MEMB     3        POPC     H12R     HAL2     0.900000E-01   1.00800           0
       476 MEMB     3        POPC     H12S     HAL2     0.900000E-01   1.00800           0
       477 MEMB     3        POPC     C213     CTL2    -0.180000       12.0110           0
       478 MEMB     3        POPC     H13R     HAL2     0.900000E-01   1.00800           0
       479 MEMB     3        POPC     H13S     HAL2     0.900000E-01   1.00800           0
       480 MEMB     3        POPC     C214     CTL2    -0.180000       12.0110           0
       481 MEMB     3        POPC     H14R     HAL2     0.900000E-01   1.00800           0
       482 MEMB     3        POPC     H14S     HAL2     0.900000E-01   1.00800           0
       483 MEMB     3        POPC     C215     CTL2    -0.180000       12.0110           0
       484 MEMB     3        POPC     H15R     HAL2     0.900000E-01   1.00800           0
       485 MEMB     3        POPC     H15S     HAL2     0.900000E-01   1.00800           0
       486 MEMB     3        POPC     C216     CTL2    -0.180000       12.0110           0
       487 MEMB     3        POPC     H16R     HAL2     0.900000E-01   1.00800           0
       488 MEMB     3        POPC     H16S     HAL2     0.900000E-01   1.00800           0
       489 MEMB     3        POPC     C217     CTL2    -0.180000       12.0110           0
       490 MEMB     3        POPC     H17R     HAL2     0.900000E-01   1.00800           0
       491 MEMB     3        POPC     H17S     HAL2     0.900000E-01   1.00800           0
       492 MEMB     3        POPC     C218     CTL3    -0.270000       12.0110           0
       493 MEMB     3        POPC     H18R     HAL3     0.900000E-01   1.00800           0
       494 MEMB     3        POPC     H18S     HAL3     0.900000E-01   1.00800           0
       495 MEMB     3        POPC     H18T     HAL3     0.900000E-01   1.00800           0
       496 MEMB     3        POPC     C33      CTL2    -0.180000       12.0110           0
       497 MEMB     3        POPC     H3X      HAL2     0.900000E-01   1.00800           0
       498 MEMB     3        POPC     H3Y      HAL2     0.900000E-01   1.00800           0
       499 MEMB     3        POPC     C34      CTL2    -0.180000       12.0110           0
       500 MEMB     3        POPC     H4X      HAL2     0.900000E-01   1.00800           0
       501 MEMB     3        POPC     H4Y      HAL2     0.900000E-01   1.00800           0
       502 MEMB     3        POPC     C35      CTL2    -0.180000       12.0110           0
       503 MEMB     3        POPC     H5X      HAL2     0.900000E-01   1.00800           0
       504 MEMB     3        POPC     H5Y      HAL2     0.900000E-01   1.00800           0
       505 MEMB     3        POPC     C36      CTL2    -0.180000       12.0110           0
       506 MEMB     3        POPC     H6X      HAL2     0.900000E-01   1.00800           0
       507 MEMB     3        POPC     H6Y      HAL2     0.900000E-01   1.00800           0
       508 MEMB     3        POPC     C37      CTL2    -0.180000       12.0110           0
       509 MEMB     3        POPC     H7X      HAL2     0.900000E-01   1.00800           0
       510 MEMB     3        POPC     H7Y      HAL2     0.900000E-01   1.00800           0
       511 MEMB     3        POPC     C38      CTL2    -0.180000       12.0110           0
       512 MEMB     3        POPC     H8X      HAL2     0.900000E-01   1.00800           0
       513 MEMB     3        POPC     H8Y      HAL2     0.900000E-01   1.00800           0
       514 MEMB     3        POPC     C39      CTL2    -0.180000       12.0110           0
       515 MEMB     3        POPC     H9X      HAL2     0.900000E-01   1.00800           0
       516 MEMB     3        POPC     H9Y      HAL2     0.900000E-01   1.00800           0
       517 MEMB     3        POPC     C310     CTL2    -0.180000       12.0110           0
       518 MEMB     3        POPC     H10X     HAL2     0.900000E-01   1.00800           0
       519 MEMB     3        POPC     H10Y     HAL2     0.900000E-01   1.00800           0
       520 MEMB     3        POPC     C311     CTL2    -0.180000       12.0110           0
       521 MEMB     3        POPC     H11X     HAL2     0.900000E-01   1.00800           0
       522 MEMB     3        POPC     H11Y     HAL2     0.900000E-01   1.00800           0
       523 MEMB     3        POPC     C312     CTL2    -0.180000       12.0110           0
       524 MEMB     3        POPC     H12X     HAL2     0.900000E-01   1.00800           0
       525 MEMB     3        POPC     H12Y     HAL2     0.900000E-01   1.00800           0
       526 MEMB     3        POPC     C313     CTL2    -0.180000       12.0110           0
       527 MEMB     3        POPC     H13X     HAL2     0.900000E-01   1.00800           0
       528 MEMB     3        POPC     H13Y     HAL2     0.900000E-01   1.00800           0
       529 MEMB     3        POPC     C314     CTL2    -0.180000       12.0110           0
       530 MEMB     3        POPC     H14X     HAL2     0.900000E-01   1.00800           0
       531 MEMB     3        POPC     H14Y     HAL2     0.900000E-01   1.00800           0
       532 MEMB     3        POPC     C315     CTL2    -0.180000       12.0110           0
       533 MEMB     3        POPC     H15X     HAL2     0.900000E-01   1.00800           0
       534 MEMB     3        POPC     H15Y     HAL2     0.900000E-01   1.00800           0
       535 MEMB     3        POPC     C316     CTL3    -0.270000       12.0110           0
       536 MEMB     3        POPC     H16X     HAL3     0.900000E-01   1.00800           0
       537 MEMB     3        POPC     H16Y     HAL3     0.900000E-01   1.00800           0
       538 MEMB     3        POPC     H16Z     HAL3     0.900000E-01   1.00800           0
       539 MEMB     4        POPC     N        NTL     -0.600000       14.0070           0
       540 MEMB     4        POPC     C12      CTL2    -0.100000       12.0110           0
       541 MEMB     4        POPC     H12A     HL       0.250000       1.00800           0
       542 MEMB     4        POPC     H12B     HL       0.250000       1.00800           0
       543 MEMB     4        POPC     C13      CTL5    -0.350000       12.0110           0
       544 MEMB     4        POPC     H13A     HL       0.250000       1.00800           0
       545 MEMB     4        POPC     H13B     HL       0.250000       1.00800           0
       546 MEMB     4        POPC     H13C     HL       0.250000       1.00800           0
       547 MEMB     4        POPC     C14      CTL5    -0.350000       12.0110           0
       548 MEMB     4        POPC     H14A     HL       0.250000       1.00800           0
       549 MEMB     4        POPC     H14B     HL       0.250000       1.00800           0
       550 MEMB     4        POPC     H14C     HL       0.250000       1.00800           0
       551 MEMB     4        POPC     C15      CTL5    -0.350000       12.0110           0
       552 MEMB     4        POPC     H15A     HL       0.250000       1.00800           0
       553 MEMB     4        POPC     H15B     HL       0.250000       1.00800           0
       554 MEMB     4        POPC     H15C     HL       0.250000       1.00800           0
       555 MEMB     4        POPC     C11      CTL2    -0.800000E-01   12.0110           0
       556 MEMB     4        POPC     H11A     HAL2     0.900000E-01   1.00800           0
       557 MEMB     4        POPC     H11B     HAL2     0.900000E-01   1.00800           0
       558 MEMB     4        POPC     P        PL       1.500000       30.9740           0
       559 MEMB     4        POPC     O13      O2L     -0.780000       15.9994           0
       560 MEMB     4        POPC     O14      O2L     -0.780000       15.9994           0
       561 MEMB     4        POPC     O12      OSLP    -0.570000       15.9994           0
       562 MEMB     4        POPC     O11      OSLP    -0.570000       15.9994           0
       563 MEMB     4        POPC     C1       CTL2    -0.800000E-01   12.0110           0
       564 MEMB     4        POPC     HA       HAL2     0.900000E-01   1.00800           0
       565 MEMB     4        POPC     HB       HAL2     0.900000E-01   1.00800           0
       566 MEMB     4        POPC     C2       CTL1     0.170000       12.0110           0
       567 MEMB     4        POPC     HS       HAL1     0.900000E-01   1.00800           0
       568 MEMB     4        POPC     O21      OSL     -0.490000       15.9994           0
       569 MEMB     4        POPC     C21      CL       0.900000       12.0110           0
       570 MEMB     4        POPC     O22      OBL     -0.630000       15.9994           0
       571 MEMB     4        POPC     C22      CTL2    -0.220000       12.0110           0
       572 MEMB     4        POPC     H2R      HAL2     0.900000E-01   1.00800           0
       573 MEMB     4        POPC     H2S      HAL2     0.900000E-01   1.00800           0
       574 MEMB     4        POPC     C3       CTL2     0.800000E-01   12.0110           0
       575 MEMB     4        POPC     HX       HAL2     0.900000E-01   1.00800           0
       576 MEMB     4        POPC     HY       HAL2     0.900000E-01   1.00800           0
       577 MEMB     4        POPC     O31      OSL     -0.490000       15.9994           0
       578 MEMB     4        POPC     C31      CL       0.900000       12.0110           0
       579 MEMB     4        POPC     O32      OBL     -0.630000       15.9994           0
       580 MEMB     4        POPC     C32      CTL2    -0.220000       12.0110           0
       581 MEMB     4        POPC     H2X      HAL2     0.900000E-01   1.00800           0
       582 MEMB     4        POPC     H2Y      HAL2     0.900000E-01   1.00800           0
       583 MEMB     4        POPC     C23      CTL2    -0.180000       12.0110           0
       584 MEMB     4        POPC     H3R      HAL2     0.900000E-01   1.00800           0
       585 MEMB     4        POPC     H3S      HAL2     0.900000E-01   1.00800           0
       586 MEMB     4        POPC     C24      CTL2    -0.180000       12.0110           0
       587 MEMB     4        POPC     H4R      HAL2     0.900000E-01   1.00800           0
       588 MEMB     4        POPC     H4S      HAL2     0.900000E-01   1.00800           0
       589 MEMB     4        POPC     C25      CTL2    -0.180000       12.0110           0
       590 MEMB     4        POPC     H5R      HAL2     0.900000E-01   1.00800           0
       591 MEMB     4        POPC     H5S      HAL2     0.900000E-01   1.00800           0
       592 MEMB     4        POPC     C26      CTL2    -0.180000       12.0110           0
       593 MEMB     4        POPC     H6R      HAL2     0.900000E-01   1.00800           0
       594 MEMB     4        POPC     H6S      HAL2     0.900000E-01   1.00800           0
       595 MEMB     4        POPC     C27      CTL2    -0.180000       12.0110           0
       596 MEMB     4        POPC     H7R      HAL2     0.900000E-01   1.00800           0
       597 MEMB     4        POPC     H7S      HAL2     0.900000E-01   1.00800           0
       598 MEMB     4        POPC     C28      CTL2    -0.180000       12.0110           0
       599 MEMB     4        POPC     H8R      HAL2     0.900000E-01   1.00800           0
       600 MEMB     4        POPC     H8S      HAL2     0.900000E-01   1.00800           0
       601 MEMB     4        POPC     C29      CEL1    -0.150000       12.0110           0
       602 MEMB     4        POPC     H91      HEL1     0.150000       1.00800           0
       603 MEMB     4        POPC     C210     CEL1    -0.150000       12.0110           0
       604 MEMB     4        POPC     H101     HEL1     0.150000       1.00800           0
       605 MEMB     4        POPC     C211     CTL2    -0.180000       12.0110           0
       606 MEMB     4        POPC     H11R     HAL2     0.900000E-01   1.00800           0
       607 MEMB     4        POPC     H11S     HAL2     0.900000E-01   1.00800           0
       608 MEMB     4        POPC     C212     CTL2    -0.180000       12.0110           0
       609 MEMB     4        POPC     H12R     HAL2     0.900000E-01   1.00800           0
       610 MEMB     4        POPC     H12S     HAL2     0.900000E-01   1.00800           0
       611 MEMB     4        POPC     C213     CTL2    -0.180000       12.0110           0
       612 MEMB     4        POPC     H13R     HAL2     0.900000E-01   1.00800           0
       613 MEMB     4        POPC     H13S     HAL2     0.900000E-01   1.00800           0
       614 MEMB     4        POPC     C214     CTL2    -0.180000       12.0110           0
       615 MEMB     4        POPC     H14R     HAL2     0.900000E-01   1.00800           0
       616 MEMB     4        POPC     H14S     HAL2     0.900000E-01   1.00800           0
       617 MEMB     4        POPC     C215     CTL2    -0.180000       12.0110           0
       618 MEMB     4        POPC     H15R     HAL2     0.900000E-01   1.00800           0
       619 MEMB     4        POPC     H15S     HAL2     0.900000E-01   1.00800           0
       620 MEMB     4        POPC     C216     CTL2    -0.180000       12.0110           0
       621 MEMB     4        POPC     H16R     HAL2     0.900000E-01   1.00800           0
       622 MEMB     4        POPC     H16S     HAL2     0.900000E-01   1.00800           0
       623 MEMB     4        POPC     C217     CTL2    -0.180000       12.0110           0
       624 MEMB     4        POPC     H17R     HAL2     0.900000E-01   1.00800           0
       625 MEMB     4        POPC     H17S     HAL2     0.900000E-01   1.00800           0
       626 MEMB     4        POPC     C218     CTL3    -0.270000       12.0110           0
       627 MEMB     4        POPC     H18R     HAL3     0.900000E-01   1.00800           0
       628 MEMB     4        POPC     H18S     HAL3     0.900000E-01   1.00800           0
       629 MEMB     4        POPC     H18T     HAL3     0.900000E-01   1.00800           0
       630 MEMB     4        POPC     C33      CTL2    -0.180000       12.0110           0
       631 MEMB     4        POPC     H3X      HAL2     0.900000E-01   1.00800           0
       632 MEMB     4        POPC     H3Y      HAL2     0.900000E-01   1.00800           0
       633 MEMB     4        POPC     C34      CTL2    -0.180000       12.0110           0
       634 MEMB     4        POPC     H4X      HAL2     0.900000E-01   1.00800           0
       635 MEMB     4        POPC     H4Y      HAL2     0.900000E-01   1.00800           0
       636 MEMB     4        POPC     C35      CTL2    -0.180000       12.0110           0
       637 MEMB     4        POPC     H5X      HAL2     0.900000E-01   1.00800           0
       638 MEMB     4        POPC     H5Y      HAL2     0.900000E-01   1.00800           0
       639 MEMB     4        POPC     C36      CTL2    -0.180000       12.0110           0
       640 MEMB     4        POPC     H6X      HAL2     0.900000E-01   1.00800           0
       641 MEMB     4        POPC     H6Y      HAL2     0.900000E-01   1.00800           0
       642 MEMB     4        POPC     C37      CTL2    -0.180000       12.0110           0
       643 MEMB     4        POPC     H7X      HAL2     0.900000E-01   1.00800           0
       644 MEMB     4        POPC     H7Y      HAL2     0.900000E-01   1.00800           0
       645 MEMB     4        POPC     C38      CTL2    -0.180000       12.0110           0
       646 MEMB     4        POPC     H8X      HAL2     0.900000E-01   1.00800           0
       647 MEMB     4        POPC     H8Y      HAL2     0.900000E-01   1.00800           0
       648 MEMB     4        POPC     C39      CTL2    -0.180000       12.0110           0
       649 MEMB     4        POPC     H9X      HAL2     0.900000E-01   1.00800           0
       650 MEMB     4        POPC     H9Y      HAL2     0.900000E-01   1.00800           0
       651 MEMB     4        POPC     C310     CTL2    -0.180000       12.0110           0
       652 MEMB     4        POPC     H10X     HAL2     0.900000E-01   1.00800           0
       653 MEMB     4        POPC     H10Y     HAL2     0.900000E-01   1.00800           0
       654 MEMB     4        POPC     C311     CTL2    -0.180000       12.0110           0
       655 MEMB     4        POPC     H11X     HAL2     0.900000E-01   1.00800           0
       656 MEMB     4        POPC     H11Y     HAL2     0.900000E-01   1.00800           0
       657 MEMB     4        POPC     C312     CTL2    -0.180000       12.0110           0
       658 MEMB     4        POPC     H12X     HAL2     0.900000E-01   1.00800           0
       659 MEMB     4        POPC     H12Y     HAL2     0.900000E-01   1.00800           0
       660 MEMB     4        POPC     C313     CTL2    -0.180000       12.0110           0
       661 MEMB     4        POPC     H13X     HAL2     0.900000E-01   1.00800           0
       662 MEMB     4        POPC     H13Y     HAL2     0.900000E-01   1.00800           0
       663 MEMB     4        POPC     C314     CTL2    -0.180000       12.0110           0
       664 MEMB     4        POPC     H14X     HAL2     0.900000E-01   1.00800           0
       665 MEMB     4        POPC     H14Y     HAL2     0.900000E-01   1.00800           0
       666 MEMB     4        POPC     C315     CTL2    -0.180000       12.0110           0
       667 MEMB     4        POPC     H15X     HAL2     0.900000E-01   1.00800           0
       668 MEMB     4        POPC     H15Y     HAL2     0.900000E-01   1.00800           0
       669 MEMB     4        POPC     C316     CTL3    -0.270000       12.0110           0
       670 MEMB     4        POPC     H16X     HAL3     0.900000E-01   1.00800           0
       671 MEMB     4        POPC     H16Y     HAL3     0.900000E-01   1.00800           0
       672 MEMB     4        POPC     H16Z     HAL3     0.900000E-01   1.00800           0
       673 MEMB     5        POPC     N        NTL     -0.600000       14.0070           0
       674 MEMB     5        POPC     C12      CTL2    -0.100000       12.0110           0
       675 MEMB     5        POPC     H12A     HL       0.250000       1.00800           0
       676 MEMB     5        POPC     H12B     HL       0.250000       1.00800           0
       677 MEMB     5        POPC     C13      CTL5    -0.350000       12.0110           0
       678 MEMB     5        POPC     H13A     HL       0.250000       1.00800           0
       679 MEMB     5        POPC     H13B     HL       0.250000       1.00800           0
       680 MEMB     5        POPC     H13C     HL       0.250000       1.00800           0
       681 MEMB     5        POPC     C14      CTL5    -0.350000       12.0110           0
       682 MEMB     5        POPC     H14A     HL       0.250000       1.00800           0
       683 MEMB     5        POPC     H14B     HL       0.250000       1.00800           0
       684 MEMB     5        POPC     H14C     HL       0.250000       1.00800           0
       685 MEMB     5        POPC     C15      CTL5    -0.350000       12.0110           0
       686 MEMB     5        POPC     H15A     HL       0.250000       1.00800           0
       687 MEMB     5        POPC     H15B     HL       0.250000       1.00800           0
       688 MEMB     5        POPC     H15C     HL       0.250000       1.00800           0
       689 MEMB     5        POPC     C11      CTL2    -0.800000E-01   12.0110           0
       690 MEMB     5        POPC     H11A     HAL2     0.900000E-01   1.00800           0
       691 MEMB     5        POPC     H11B     HAL2     0.900000E-01   1.00800           0
       692 MEMB     5        POPC     P        PL       1.500000       30.9740           0
       693 MEMB     5        POPC     O13      O2L     -0.780000       15.9994           0
       694 MEMB     5        POPC     O14      O2L     -0.780000       15.9994           0
       695 MEMB     5        POPC     O12      OSLP    -0.570000       15.9994           0
       696 MEMB     5        POPC     O11      OSLP    -0.570000       15.9994           0
       697 MEMB     5        POPC     C1       CTL2    -0.800000E-01   12.0110           0
       698 MEMB     5        POPC     HA       HAL2     0.900000E-01   1.00800           0
       699 MEMB     5        POPC     HB       HAL2     0.900000E-01   1.00800           0
       700 MEMB     5        POPC     C2       CTL1     0.170000       12.0110           0
       701 MEMB     5        POPC     HS       HAL1     0.900000E-01   1.00800           0
       702 MEMB     5        POPC     O21      OSL     -0.490000       15.9994           0
       703 MEMB     5        POPC     C21      CL       0.900000       12.0110           0
       704 MEMB     5        POPC     O22      OBL     -0.630000       15.9994           0
       705 MEMB     5        POPC     C22      CTL2    -0.220000       12.0110           0
       706 MEMB     5        POPC     H2R      HAL2     0.900000E-01   1.00800           0
       707 MEMB     5        POPC     H2S      HAL2     0.900000E-01   1.00800           0
       708 MEMB     5        POPC     C3       CTL2     0.800000E-01   12.0110           0
       709 MEMB     5        POPC     HX       HAL2     0.900000E-01   1.00800           0
       710 MEMB     5        POPC     HY       HAL2     0.900000E-01   1.00800           0
       711 MEMB     5        POPC     O31      OSL     -0.490000       15.9994           0
       712 MEMB     5        POPC     C31      CL       0.900000       12.0110           0
       713 MEMB     5        POPC     O32      OBL     -0.630000       15.9994           0
       714 MEMB     5        POPC     C32      CTL2    -0.220000       12.0110           0
       715 MEMB     5        POPC     H2X      HAL2     0.900000E-01   1.00800           0
       716 MEMB     5        POPC     H2Y      HAL2     0.900000E-01   1.00800           0
       717 MEMB     5        POPC     C23      CTL2    -0.180000       12.0110           0
       718 MEMB     5        POPC     H3R      HAL2     0.900000E-01   1.00800           0
       719 MEMB     5        POPC     H3S      HAL2     0.900000E-01   1.00800           0
       720 MEMB     5        POPC     C24      CTL2    -0.180000       12.0110           0
       721 MEMB     5        POPC     H4R      HAL2     0.900000E-01   1.00800           0
       722 MEMB     5        POPC     H4S      HAL2     0.900000E-01   1.00800           0
       723 MEMB     5        POPC     C25      CTL2    -0.180000       12.0110           0
       724 MEMB     5        POPC     H5R      HAL2     0.900000E-01   1.00800           0
       725 MEMB     5        POPC     H5S      HAL2     0.900000E-01   1.00800           0
       726 MEMB     5        POPC     C26      CTL2    -0.180000       12.0110           0
       727 MEMB     5        POPC     H6R      HAL2     0.900000E-01   1.00800           0
       728 MEMB     5        POPC     H6S      HAL2     0.900000E-01   1.00800           0
       729 MEMB     5        POPC     C27      CTL2    -0.180000       12.0110           0
       730 MEMB     5        POPC     H7R      HAL2     0.900000E-01   1.00800           0
       731 MEMB     5        POPC     H7S      HAL2     0.900000E-01   1.00800           0
       732 MEMB     5        POPC     C28      CTL2    -0.180000       12.0110           0
       733 MEMB     5        POPC     H8R      HAL2     0.900000E-01   1.00800           0
       734 MEMB     5        POPC     H8S      HAL2     0.900000E-01   1.00800           0
       735 MEMB     5        POPC     C29      CEL1    -0.150000       12.0110           0
       736 MEMB     5        POPC     H91      HEL1     0.150000       1.00800           0
       737 MEMB     5        POPC     C210     CEL1    -0.150000       12.0110           0
       738 MEMB     5        POPC     H101     HEL1     0.150000       1.00800           0
       739 MEMB     5        POPC     C211     CTL2    -0.180000       12.0110           0
       740 MEMB     5        POPC     H11R     HAL2     0.900000E-01   1.00800           0
       741 MEMB     5        POPC     H11S     HAL2     0.900000E-01   1.00800           0
       742 MEMB     5        POPC     C212     CTL2    -0.180000       12.0110           0
       743 MEMB     5        POPC     H12R     HAL2     0.900000E-01   1.00800           0
       744 MEMB     5        POPC     H12S     HAL2     0.900000E-01   1.00800           0
       745 MEMB     5        POPC     C213     CTL2    -0.180000       12.0110           0
       746 MEMB     5        POPC     H13R     HAL2     0.900000E-01   1.00800           0
       747 MEMB     5        POPC     H13S     HAL2     0.900000E-01   1.00800           0
       748 MEMB     5        POPC     C214     CTL2    -0.180000       12.0110           0
       749 MEMB     5        POPC     H14R     HAL2     0.900000E-01   1.00800           0
       750 MEMB     5        POPC     H14S     HAL2     0.900000E-01   1.00800           0
       751 MEMB     5        POPC     C215     CTL2    -0.180000       12.0110           0
       752 MEMB     5        POPC     H15R     HAL2     0.900000E-01   1.00800           0
       753 MEMB     5        POPC     H15S     HAL2     0.900000E-01   1.00800           0
       754 MEMB     5        POPC     C216     CTL2    -0.180000       12.0110           0
       755 MEMB     5        POPC     H16R     HAL2     0.900000E-01   1.00800           0
       756 MEMB     5        POPC     H16S     HAL2     0.900000E-01   1.00800           0
       757 MEMB     5        POPC     C217     CTL2    -0.180000       12.0110           0
       758 MEMB     5        POPC     H17R     HAL2     0.900000E-01   1.00800           0
       759 MEMB     5        POPC     H17S     HAL2     0.900000E-01   1.00800           0
       760 MEMB     5        POPC     C218     CTL3    -0.270000       12.0110           0
       761 MEMB     5        POPC     H18R     HAL3     0.900000E-01   1.00800           0
       762 MEMB     5        POPC     H18S     HAL3     0.900000E-01   1.00800           0
       763 MEMB     5        POPC     H18T     HAL3     0.900000E-01   1.00800           0
       764 MEMB     5        POPC     C33      CTL2    -0.180000       12.0110           0
       765 MEMB     5        POPC     H3X      HAL2     0.900000E-01   1.00800           0
       766 MEMB     5        POPC     H3Y      HAL2     0.900000E-01   1.00800           0
       767 MEMB     5        POPC     C34      CTL2    -0.180000       12.0110           0
       768 MEMB     5        POPC     H4X      HAL2     0.900000E-01   1.00800           0
       769 MEMB     5        POPC     H4Y      HAL2     0.900000E-01   1.00800           0
       770 MEMB     5        POPC     C35      CTL2    -0.180000       12.0110           0
       771 MEMB     5        POPC     H5X      HAL2     0.900000E-01   1.00800           0
       772 MEMB     5        POPC     H5Y      HAL2     0.900000E-01   1.00800           0
       773 MEMB     5        POPC     C36      CTL2    -0.180000       12.0110           0
       774 MEMB     5        POPC     H6X      HAL2     0.900000E-01   1.00800           0
       775 MEMB     5        POPC     H6Y      HAL2     0.900000E-01   1.00800           0
       776 MEMB     5        POPC     C37      CTL2    -0.180000       12.0110           0
       777 MEMB     5        POPC     H7X      HAL2     0.900000E-01   1.00800           0
       778 MEMB     5        POPC     H7Y      HAL2     0.900000E-01   1.00800           0
       779 MEMB     5        POPC     C38      CTL2    -0.180000       12.0110           0
       780 MEMB     5        POPC     H8X      HAL2     0.900000E-01   1.00800           0
       781 MEMB     5        POPC     H8Y      HAL2     0.900000E-01   1.00800           0
       782 MEMB     5        POPC     C39      CTL2    -0.180000       12.0110           0
       783 MEMB     5        POPC     H9X      HAL2     0.900000E-01   1.00800           0
       784 MEMB     5        POPC     H9Y      HAL2     0.900000E-01   1.00800           0
       785 MEMB     5        POPC     C310     CTL2    -0.180000       12.0110           0
       786 MEMB     5        POPC     H10X     HAL2     0.900000E-01   1.00800           0
       787 MEMB     5        POPC     H10Y     HAL2     0.900000E-01   1.00800           0
       788 MEMB     5        POPC     C311     CTL2    -0.180000       12.0110           0
       789 MEMB     5        POPC     H11X     HAL2     0.900000E-01   1.00800           0
       790 MEMB     5        POPC     H11Y     HAL2     0.900000E-01   1.00800           0
       791 MEMB     5        POPC     C312     CTL2    -0.180000       12.0110           0
       792 MEMB     5        POPC     H12X     HAL2     0.900000E-01   1.00800           0
       793 MEMB     5        POPC     H12Y     HAL2     0.900000E-01   1.00800           0
       794 MEMB     5        POPC     C313     CTL2    -0.180000       12.0110           0
       795 MEMB     5        POPC     H13X     HAL2     0.900000E-01   1.00800           0
       796 MEMB     5        POPC     H13Y     HAL2     0.900000E-01   1.00800           0
       797 MEMB     5        POPC     C314     CTL2    -0.180000       12.0110           0
       798 MEMB     5        POPC     H14X     HAL2     0.900000E-01   1.00800           0
       799 MEMB     5        POPC     H14Y     HAL2     0.900000E-01   1.00800           0
       800 MEMB     5        POPC     C315     CTL2    -0.180000       12.0110           0
       801 MEMB     5        POPC     H15X     HAL2     0.900000E-01   1.00800           0
       802 MEMB     5        POPC     H15Y     HAL2     0.900000E-01   1.00800           0
       803 MEMB     5        POPC     C316     CTL3    -0.270000       12.0110           0
       804 MEMB     5        POPC     H16X     HAL3     0.900000E-01   1.00800           0
       805 MEMB     5        POPC     H16Y     HAL3     0.900000E-01   1.00800           0
       806 MEMB     5        POPC     H16Z     HAL3     0.900000E-01   1.00800           0
       807 MEMB     6        POPS     N        NH3L    -0.300000       14.0070           0
       808 MEMB     6        POPS     HN1      HCL      0.330000       1.00800           0
       809 MEMB     6        POPS     HN2      HCL      0.330000       1.00800           0
       810 MEMB     6        POPS     HN3      HCL      0.330000       1.00800           0
       811 MEMB     6        POPS     C12      CTL1     0.210000       12.0110           0
       812 MEMB     6        POPS     H12A     HBL      0.100000       1.00800           0
       813 MEMB     6        POPS     C13      CCL      0.340000       12.0110           0
       814 MEMB     6        POPS     O13A     OCL     -0.670000       15.9994           0
       815 MEMB     6        POPS     O13B     OCL     -0.670000       15.9994           0
       816 MEMB     6        POPS     C11      CTL2    -0.800000E-01   12.0110           0
       817 MEMB     6        POPS     H11A     HAL2     0.900000E-01   1.00800           0
       818 MEMB     6        POPS     H11B     HAL2     0.900000E-01   1.00800           0
       819 MEMB     6        POPS     P        PL       1.500000       30.9740           0
       820 MEMB     6        POPS     O13      O2L     -0.780000       15.9994           0
       821 MEMB     6        POPS     O14      O2L     -0.780000       15.9994           0
       822 MEMB     6        POPS     O12      OSLP    -0.570000       15.9994           0
       823 MEMB     6        POPS     O11      OSLP    -0.570000       15.9994           0
       824 MEMB     6        POPS     C1       CTL2    -0.800000E-01   12.0110           0
       825 MEMB     6        POPS     HA       HAL2     0.900000E-01   1.00800           0
       826 MEMB     6        POPS     HB       HAL2     0.900000E-01   1.00800           0
       827 MEMB     6        POPS     C2       CTL1     0.170000       12.0110           0
       828 MEMB     6        POPS     HS       HAL1     0.900000E-01   1.00800           0
       829 MEMB     6        POPS     O21      OSL     -0.490000       15.9994           0
       830 MEMB     6        POPS     C21      CL       0.900000       12.0110           0
       831 MEMB     6        POPS     O22      OBL     -0.630000       15.9994           0
       832 MEMB     6        POPS     C22      CTL2    -0.220000       12.0110           0
       833 MEMB     6        POPS     H2R      HAL2     0.900000E-01   1.00800           0
       834 MEMB     6        POPS     H2S      HAL2     0.900000E-01   1.00800           0
       835 MEMB     6        POPS     C3       CTL2     0.800000E-01   12.0110           0
       836 MEMB     6        POPS     HX       HAL2     0.900000E-01   1.00800           0
       837 MEMB     6        POPS     HY       HAL2     0.900000E-01   1.00800           0
       838 MEMB     6        POPS     O31      OSL     -0.490000       15.9994           0
       839 MEMB     6        POPS     C31      CL       0.900000       12.0110           0
       840 MEMB     6        POPS     O32      OBL     -0.630000       15.9994           0
       841 MEMB     6        POPS     C32      CTL2    -0.220000       12.0110           0
       842 MEMB     6        POPS     H2X      HAL2     0.900000E-01   1.00800           0
       843 MEMB     6        POPS     H2Y      HAL2     0.900000E-01   1.00800           0
       844 MEMB     6        POPS     C23      CTL2    -0.180000       12.0110           0
       845 MEMB     6        POPS     H3R      HAL2     0.900000E-01   1.00800           0
       846 MEMB     6        POPS     H3S      HAL2     0.900000E-01   1.00800           0
       847 MEMB     6        POPS     C24      CTL2    -0.180000       12.0110           0
       848 MEMB     6        POPS     H4R      HAL2     0.900000E-01   1.00800           0
       849 MEMB     6        POPS     H4S      HAL2     0.900000E-01   1.00800           0
       850 MEMB     6        POPS     C25      CTL2    -0.180000       12.0110           0
       851 MEMB     6        POPS     H5R      HAL2     0.900000E-01   1.00800           0
       852 MEMB     6        POPS     H5S      HAL2     0.900000E-01   1.00800           0
       853 MEMB     6        POPS     C26      CTL2    -0.180000       12.0110           0
       854 MEMB     6        POPS     H6R      HAL2     0.900000E-01   1.00800           0
       855 MEMB     6        POPS     H6S      HAL2     0.900000E-01   1.00800           0
       856 MEMB     6        POPS     C27      CTL2    -0.180000       12.0110           0
       857 MEMB     6        POPS     H7R      HAL2     0.900000E-01   1.00800           0
       858 MEMB     6        POPS     H7S      HAL2     0.900000E-01   1.00800           0
       859 MEMB     6        POPS     C28      CTL2    -0.180000       12.0110           0
       860 MEMB     6        POPS     H8R      HAL2     0.900000E-01   1.00800           0
       861 MEMB     6        POPS     H8S      HAL2     0.900000E-01   1.00800           0
       862 MEMB     6        POPS     C29      CEL1    -0.150000       12.0110           0
       863 MEMB     6        POPS     H91      HEL1     0.150000       1.00800           0
       864 MEMB     6        POPS     C210     CEL1    -0.150000       12.0110           0
       865 MEMB     6        POPS     H101     HEL1     0.150000       1.00800           0
       866 MEMB     6        POPS     C211     CTL2    -0.180000       12.0110           0
       867 MEMB     6        POPS     H11R     HAL2     0.900000E-01   1.00800           0
       868 MEMB     6        POPS     H11S     HAL2     0.900000E-01   1.00800           0
       869 MEMB     6        POPS     C212     CTL2    -0.180000       12.0110           0
       870 MEMB     6        POPS     H12R     HAL2     0.900000E-01   1.00800           0
       871 MEMB     6        POPS     H12S     HAL2     0.900000E-01   1.00800           0
       872 MEMB     6        POPS     C213     CTL2    -0.180000       12.0110           0
       873 MEMB     6        POPS     H13R     HAL2     0.900000E-01   1.00800           0
       874 MEMB     6        POPS     H13S     HAL2     0.900000E-01   1.00800           0
       875 MEMB     6        POPS     C214     CTL2    -0.180000       12.0110           0
       876 MEMB     6        POPS     H14R     HAL2     0.900000E-01   1.00800           0
       877 MEMB     6        POPS     H14S     HAL2     0.900000E-01   1.00800           0
       878 MEMB     6        POPS     C215     CTL2    -0.180000       12.0110           0
       879 MEMB     6        POPS     H15R     HAL2     0.900000E-01   1.00800           0
       880 MEMB     6        POPS     H15S     HAL2     0.900000E-01   1.00800           0
       881 MEMB     6        POPS     C216     CTL2    -0.180000       12.0110           0
       882 MEMB     6        POPS     H16R     HAL2     0.900000E-01   1.00800           0
       883 MEMB     6        POPS     H16S     HAL2     0.900000E-01   1.00800           0
       884 MEMB     6        POPS     C217     CTL2    -0.180000       12.0110           0
       885 MEMB     6        POPS     H17R     HAL2     0.900000E-01   1.00800           0
       886 MEMB     6        POPS     H17S     HAL2     0.900000E-01   1.00800           0
       887 MEMB     6        POPS     C218     CTL3    -0.270000       12.0110           0
       888 MEMB     6        POPS     H18R     HAL3     0.900000E-01   1.00800           0
       889 MEMB     6        POPS     H18S     HAL3     0.900000E-01   1.00800           0
       890 MEMB     6        POPS     H18T     HAL3     0.900000E-01   1.00800           0
       891 MEMB     6        POPS     C33      CTL2    -0.180000       12.0110           0
       892 MEMB     6        POPS     H3X      HAL2     0.900000E-01   1.00800           0
       893 MEMB     6        POPS     H3Y      HAL2     0.900000E-01   1.00800           0
       894 MEMB     6        POPS     C34      CTL2    -0.180000       12.0110           0
       895 MEMB     6        POPS     H4X      HAL2     0.900000E-01   1.00800           0
       896 MEMB     6        POPS     H4Y      HAL2     0.900000E-01   1.00800           0
       897 MEMB     6        POPS     C35      CTL2    -0.180000       12.0110           0
       898 MEMB     6        POPS     H5X      HAL2     0.900000E-01   1.00800           0
       899 MEMB     6        POPS     H5Y      HAL2     0.900000E-01   1.00800           0
       900 MEMB     6        POPS     C36      CTL2    -0.180000       12.0110           0
       901 MEMB     6        POPS     H6X      HAL2     0.900000E-01   1.00800           0
       902 MEMB     6        POPS     H6Y      HAL2     0.900000E-01   1.00800           0
       903 MEMB     6        POPS     C37      CTL2    -0.180000       12.0110           0
       904 MEMB     6        POPS     H7X      HAL2     0.900000E-01   1.00800           0
       905 MEMB     6        POPS     H7Y      HAL2     0.900000E-01   1.00800           0
       906 MEMB     6        POPS     C38      CTL2    -0.180000       12.0110           0
       907 MEMB     6        POPS     H8X      HAL2     0.900000E-01   1.00800           0
       908 MEMB     6        POPS     H8Y      HAL2     0.900000E-01   1.00800           0
       909 MEMB     6        POPS     C39      CTL2    -0.180000       12.0110           0
       910 MEMB     6        POPS     H9X      HAL2     0.900000E-01   1.00800           0
       911 MEMB     6        POPS     H9Y      HAL2     0.900000E-01   1.00800           0
       912 MEMB     6        POPS     C310     CTL2    -0.180000       12.0110           0
       913 MEMB     6        POPS     H10X     HAL2     0.900000E-01   1.00800           0
       914 MEMB     6        POPS     H10Y     HAL2     0.900000E-01   1.00800           0
       915 MEMB     6        POPS     C311     CTL2    -0.180000       12.0110           0
       916 MEMB     6        POPS     H11X     HAL2     0.900000E-01   1.00800           0
       917 MEMB     6        POPS     H11Y     HAL2     0.900000E-01   1.00800           0
       918 MEMB     6        POPS     C312     CTL2    -0.180000       12.0110           0
       919 MEMB     6        POPS     H12X     HAL2     0.900000E-01   1.00800           0
       920 MEMB     6        POPS     H12Y     HAL2     0.900000E-01   1.00800           0
       921 MEMB     6        POPS     C313     CTL2    -0.180000       12.0110           0
       922 MEMB     6        POPS     H13X     HAL2     0.900000E-01   1.00800           0
       923 MEMB     6        POPS     H13Y     HAL2     0.900000E-01   1.00800           0
       924 MEMB     6        POPS     C314     CTL2    -0.180000       12.0110           0
       925 MEMB     6        POPS     H14X     HAL2     0.900000E-01   1.00800           0
       926 MEMB     6        POPS     H14Y     HAL2     0.900000E-01   1.00800           0
       927 MEMB     6        POPS     C315     CTL2    -0.180000       12.0110           0
       928 MEMB     6        POPS     H15X     HAL2     0.900000E-01   1.00800           0
       929 MEMB     6        POPS     H15Y     HAL2     0.900000E-01   1.00800           0
       930 MEMB     6        POPS     C316     CTL3    -0.270000       12.0110           0
       931 MEMB     6        POPS     H16X     HAL3     0.900000E-01   1.00800           0
       932 MEMB     6        POPS     H16Y     HAL3     0.900000E-01   1.00800           0
       933 MEMB     6        POPS     H16Z     HAL3     0.900000E-01   1.00800           0
       934 MEMB     7        POPC     N        NTL     -0.600000       14.0070           0
       935 MEMB     7        POPC     C12      CTL2    -0.100000       12.0110           0
       936 MEMB     7        POPC     H12A     HL       0.250000       1.00800           0
       937 MEMB     7        POPC     H12B     HL       0.250000       1.00800           0
       938 MEMB     7        POPC     C13      CTL5    -0.350000       12.0110           0
       939 MEMB     7        POPC     H13A     HL       0.250000       1.00800           0
       940 MEMB     7        POPC     H13B     HL       0.250000       1.00800           0
       941 MEMB     7        POPC     H13C     HL       0.250000       1.00800           0
       942 MEMB     7        POPC     C14      CTL5    -0.350000       12.0110           0
       943 MEMB     7        POPC     H14A     HL       0.250000       1.00800           0
       944 MEMB     7        POPC     H14B     HL       0.250000       1.00800           0
       945 MEMB     7        POPC     H14C     HL       0.250000       1.00800           0
       946 MEMB     7        POPC     C15      CTL5    -0.350000       12.0110           0
       947 MEMB     7        POPC     H15A     HL       0.250000       1.00800           0
       948 MEMB     7        POPC     H15B     HL       0.250000       1.00800           0
       949 MEMB     7        POPC     H15C     HL       0.250000       1.00800           0
       950 MEMB     7        POPC     C11      CTL2    -0.800000E-01   12.0110           0
       951 MEMB     7        POPC     H11A     HAL2     0.900000E-01   1.00800           0
       952 MEMB     7        POPC     H11B     HAL2     0.900000E-01   1.00800           0
       953 MEMB     7        POPC     P        PL       1.500000       30.9740           0
       954 MEMB     7        POPC     O13      O2L     -0.780000       15.9994           0
       955 MEMB     7        POPC     O14      O2L     -0.780000       15.9994           0
       956 MEMB     7        POPC     O12      OSLP    -0.570000       15.9994           0
       957 MEMB     7        POPC     O11      OSLP    -0.570000       15.9994           0
       958 MEMB     7        POPC     C1       CTL2    -0.800000E-01   12.0110           0
       959 MEMB     7        POPC     HA       HAL2     0.900000E-01   1.00800           0
       960 MEMB     7        POPC     HB       HAL2     0.900000E-01   1.00800           0
       961 MEMB     7        POPC     C2       CTL1     0.170000       12.0110           0
       962 MEMB     7        POPC     HS       HAL1     0.900000E-01   1.00800           0
       963 MEMB     7        POPC     O21      OSL     -0.490000       15.9994           0
       964 MEMB     7        POPC     C21      CL       0.900000       12.0110           0
       965 MEMB     7        POPC     O22      OBL     -0.630000       15.9994           0
       966 MEMB     7        POPC     C22      CTL2    -0.220000       12.0110           0
       967 MEMB     7        POPC     H2R      HAL2     0.900000E-01   1.00800           0
       968 MEMB     7        POPC     H2S      HAL2     0.900000E-01   1.00800           0
       969 MEMB     7        POPC     C3       CTL2     0.800000E-01   12.0110           0
       970 MEMB     7        POPC     HX       HAL2     0.900000E-01   1.00800           0
       971 MEMB     7        POPC     HY       HAL2     0.900000E-01   1.00800           0
       972 MEMB     7        POPC     O31      OSL     -0.490000       15.9994           0
       973 MEMB     7        POPC     C31      CL       0.900000       12.0110           0
       974 MEMB     7        POPC     O32      OBL     -0.630000       15.9994           0
       975 MEMB     7        POPC     C32      CTL2    -0.220000       12.0110           0
       976 MEMB     7        POPC     H2X      HAL2     0.900000E-01   1.00800           0
       977 MEMB     7        POPC     H2Y      HAL2     0.900000E-01   1.00800           0
       978 MEMB     7        POPC     C23      CTL2    -0.180000       12.0110           0
       979 MEMB     7        POPC     H3R      HAL2     0.900000E-01   1.00800           0
       980 MEMB     7        POPC     H3S      HAL2     0.900000E-01   1.00800           0
       981 MEMB     7        POPC     C24      CTL2    -0.180000       12.0110           0
       982 MEMB     7        POPC     H4R      HAL2     0.900000E-01   1.00800           0
       983 MEMB     7        POPC     H4S      HAL2     0.900000E-01   1.00800           0
       984 MEMB     7        POPC     C25      CTL2    -0.180000       12.0110           0
       985 MEMB     7        POPC     H5R      HAL2     0.900000E-01   1.00800           0
       986 MEMB     7        POPC     H5S      HAL2     0.900000E-01   1.00800           0
       987 MEMB     7        POPC     C26      CTL2    -0.180000       12.0110           0
       988 MEMB     7        POPC     H6R      HAL2     0.900000E-01   1.00800           0
       989 MEMB     7        POPC     H6S      HAL2     0.900000E-01   1.00800           0
       990 MEMB     7        POPC     C27      CTL2    -0.180000       12.0110           0
       991 MEMB     7        POPC     H7R      HAL2     0.900000E-01   1.00800           0
       992 MEMB     7        POPC     H7S      HAL2     0.900000E-01   1.00800           0
       993 MEMB     7        POPC     C28      CTL2    -0.180000       12.0110           0
       994 MEMB     7        POPC     H8R      HAL2     0.900000E-01   1.00800           0
       995 MEMB     7        POPC     H8S      HAL2     0.900000E-01   1.00800           0
       996 MEMB     7        POPC     C29      CEL1    -0.150000       12.0110           0
       997 MEMB     7        POPC     H91      HEL1     0.150000       1.00800           0
       998 MEMB     7        POPC     C210     CEL1    -0.150000       12.0110           0
       999 MEMB     7        POPC     H101     HEL1     0.150000       1.00800           0
      1000 MEMB     7        POPC     C211     CTL2    -0.180000       12.0110           0
      1001 MEMB     7        POPC     H11R     HAL2     0.900000E-01   1.00800           0
      1002 MEMB     7        POPC     H11S     HAL2     0.900000E-01   1.00800           0
      1003 MEMB     7        POPC     C212     CTL2    -0.180000       12.0110           0
      1004 MEMB     7        POPC     H12R     HAL2     0.900000E-01   1.00800           0
      1005 MEMB     7        POPC     H12S     HAL2     0.900000E-01   1.00800           0
      1006 MEMB     7        POPC     C213     CTL2    -0.180000       12.0110           0
      1007 MEMB     7        POPC     H13R     HAL2     0.900000E-01   1.00800           0
      1008 MEMB     7        POPC     H13S     HAL2     0.900000E-01   1.00800           0
      1009 MEMB     7        POPC     C214     CTL2    -0.180000       12.0110           0
      1010 MEMB     7        POPC     H14R     HAL2     0.900000E-01   1.00800           0
      1011 MEMB     7        POPC     H14S     HAL2     0.900000E-01   1.00800           0
      1012 MEMB     7        POPC     C215     CTL2    -0.180000       12.0110           0
      1013 MEMB     7        POPC     H15R     HAL2     0.900000E-01   1.00800           0
      1014 MEMB     7        POPC     H15S     HAL2     0.900000E-01   1.00800           0
      1015 MEMB     7        POPC     C216     CTL2    -0.180000       12.0110           0
      1016 MEMB     7        POPC     H16R     HAL2     0.900000E-01   1.00800           0
      1017 MEMB     7        POPC     H16S     HAL2     0.900000E-01   1.00800           0
      1018 MEMB     7        POPC     C217     CTL2    -0.180000       12.0110           0
      1019 MEMB     7        POPC     H17R     HAL2     0.900000E-01   1.00800           0
      1020 MEMB     7        POPC     H17S     HAL2     0.900000E-01   1.00800           0
      1021 MEMB     7        POPC     C218     CTL3    -0.270000       12.0110           0
      1022 MEMB     7        POPC     H18R     HAL3     0.900000E-01   1.00800           0
      1023 MEMB     7        POPC     H18S     HAL3     0.900000E-01   1.00800           0
      1024 MEMB     7        POPC     H18T     HAL3     0.900000E-01   1.00800           0
      1025 MEMB     7        POPC     C33      CTL2    -0.180000       12.0110           0
      1026 MEMB     7        POPC     H3X      HAL2     0.900000E-01   1.00800           0
      1027 MEMB     7        POPC     H3Y      HAL2     0.900000E-01   1.00800           0
      1028 MEMB     7        POPC     C34      CTL2    -0.180000       12.0110           0
      1029 MEMB     7        POPC     H4X      HAL2     0.900000E-01   1.00800           0
      1030 MEMB     7        POPC     H4Y      HAL2     0.900000E-01   1.00800           0
      1031 MEMB     7        POPC     C35      CTL2    -0.180000       12.0110           0
      1032 MEMB     7        POPC     H5X      HAL2     0.900000E-01   1.00800           0
      1033 MEMB     7        POPC     H5Y      HAL2     0.900000E-01   1.00800           0
      1034 MEMB     7        POPC     C36      CTL2    -0.180000       12.0110           0
      1035 MEMB     7        POPC     H6X      HAL2     0.900000E-01   1.00800           0
      1036 MEMB     7        POPC     H6Y      HAL2     0.900000E-01   1.00800           0
      1037 MEMB     7        POPC     C37      CTL2    -0.180000       12.0110           0
      1038 MEMB     7        POPC     H7X      HAL2     0.900000E-01   1.00800           0
      1039 MEMB     7        POPC     H7Y      HAL2     0.900000E-01   1.00800           0
      1040 MEMB     7        POPC     C38      CTL2    -0.180000       12.0110           0
      1041 MEMB     7        POPC     H8X      HAL2     0.900000E-01   1.00800           0
      1042 MEMB     7        POPC     H8Y      HAL2     0.900000E-01   1.00800           0
      1043 MEMB     7        POPC     C39      CTL2    -0.180000       12.0110           0
      1044 MEMB     7        POPC     H9X      HAL2     0.900000E-01   1.00800           0
      1045 MEMB     7        POPC     H9Y      HAL2     0.900000E-01   1.00800           0
      1046 MEMB     7        POPC     C310     CTL2    -0.180000       12.0110           0
      1047 MEMB     7        POPC     H10X     HAL2     0.900000E-01   1.00800           0
      1048 MEMB     7        POPC     H10Y     HAL2     0.900000E-01   1.00800           0
      1049 MEMB     7        POPC     C311     CTL2    -0.180000       12.0110           0
      1050 MEMB     7        POPC     H11X     HAL2     0.900000E-01   1.00800           0
      1051 MEMB     7        POPC     H11Y     HAL2     0.900000E-01   1.00800           0
      1052 MEMB     7        POPC     C312     CTL2    -0.180000       12.0110           0
      1053 MEMB     7        POPC     H12X     HAL2     0.900000E-01   1.00800           0
      1054 MEMB     7        POPC     H12Y     HAL2     0.900000E-01   1.00800           0
      1055 MEMB     7        POPC     C313     CTL2    -0.180000       12.0110           0
      1056 MEMB     7        POPC     H13X     HAL2     0.900000E-01   1.00800           0
      1057 MEMB     7        POPC     H13Y     HAL2     0.900000E-01   1.00800           0
      1058 MEMB     7        POPC     C314     CTL2    -0.180000       12.0110           0
      1059 MEMB     7        POPC     H14X     HAL2     0.900000E-01   1.00800           0
      1060 MEMB     7        POPC     H14Y     HAL2     0.900000E-01   1.00800           0
      1061 MEMB     7        POPC     C315     CTL2    -0.180000       12.0110           0
      1062 MEMB     7        POPC     H15X     HAL2     0.900000E-01   1.00800           0
      1063 MEMB     7        POPC     H15Y     HAL2     0.900000E-01   1.00800           0
      1064 MEMB     7        POPC     C316     CTL3    -0.270000       12.0110           0
      1065 MEMB     7        POPC     H16X     HAL3     0.900000E-01   1.00800           0
      1066 MEMB     7        POPC     H16Y     HAL3     0.900000E-01   1.00800           0
      1067 MEMB     7        POPC     H16Z     HAL3     0.900000E-01   1.00800           0
      1068 MEMB     8        POPS     N        NH3L    -0.300000       14.0070           0
      1069 MEMB     8        POPS     HN1      HCL      0.330000       1.00800           0
      1070 MEMB     8        POPS     HN2      HCL      0.330000       1.00800           0
      1071 MEMB     8        POPS     HN3      HCL      0.330000       1.00800           0
      1072 MEMB     8        POPS     C12      CTL1     0.210000       12.0110           0
      1073 MEMB     8        POPS     H12A     HBL      0.100000       1.00800           0
      1074 MEMB     8        POPS     C13      CCL      0.340000       12.0110           0
      1075 MEMB     8        POPS     O13A     OCL     -0.670000       15.9994           0
      1076 MEMB     8        POPS     O13B     OCL     -0.670000       15.9994           0
      1077 MEMB     8        POPS     C11      CTL2    -0.800000E-01   12.0110           0
      1078 MEMB     8        POPS     H11A     HAL2     0.900000E-01   1.00800           0
      1079 MEMB     8        POPS     H11B     HAL2     0.900000E-01   1.00800           0
      1080 MEMB     8        POPS     P        PL       1.500000       30.9740           0
      1081 MEMB     8        POPS     O13      O2L     -0.780000       15.9994           0
      1082 MEMB     8        POPS     O14      O2L     -0.780000       15.9994           0
      1083 MEMB     8        POPS     O12      OSLP    -0.570000       15.9994           0
      1084 MEMB     8        POPS     O11      OSLP    -0.570000       15.9994           0
      1085 MEMB     8        POPS     C1       CTL2    -0.800000E-01   12.0110           0
      1086 MEMB     8        POPS     HA       HAL2     0.900000E-01   1.00800           0
      1087 MEMB     8        POPS     HB       HAL2     0.900000E-01   1.00800           0
      1088 MEMB     8        POPS     C2       CTL1     0.170000       12.0110           0
      1089 MEMB     8        POPS     HS       HAL1     0.900000E-01   1.00800           0
      1090 MEMB     8        POPS     O21      OSL     -0.490000       15.9994           0
      1091 MEMB     8        POPS     C21      CL       0.900000       12.0110           0
      1092 MEMB     8        POPS     O22      OBL     -0.630000       15.9994           0
      1093 MEMB     8        POPS     C22      CTL2    -0.220000       12.0110           0
      1094 MEMB     8        POPS     H2R      HAL2     0.900000E-01   1.00800           0
      1095 MEMB     8        POPS     H2S      HAL2     0.900000E-01   1.00800           0
      1096 MEMB     8        POPS     C3       CTL2     0.800000E-01   12.0110           0
      1097 MEMB     8        POPS     HX       HAL2     0.900000E-01   1.00800           0
      1098 MEMB     8        POPS     HY       HAL2     0.900000E-01   1.00800           0
      1099 MEMB     8        POPS     O31      OSL     -0.490000       15.9994           0
      1100 MEMB     8        POPS     C31      CL       0.900000       12.0110           0
      1101 MEMB     8        POPS     O32      OBL     -0.630000       15.9994           0
      1102 MEMB     8        POPS     C32      CTL2    -0.220000       12.0110           0
      1103 MEMB     8        POPS     H2X      HAL2     0.900000E-01   1.00800           0
      1104 MEMB     8        POPS     H2Y      HAL2     0.900000E-01   1.00800           0
      1105 MEMB     8        POPS     C23      CTL2    -0.180000       12.0110           0
      1106 MEMB     8        POPS     H3R      HAL2     0.900000E-01   1.00800           0
      1107 MEMB     8        POPS     H3S      HAL2     0.900000E-01   1.00800           0
      1108 MEMB     8        POPS     C24      CTL2    -0.180000       12.0110           0
      1109 MEMB     8        POPS     H4R      HAL2     0.900000E-01   1.00800           0
      1110 MEMB     8        POPS     H4S      HAL2     0.900000E-01   1.00800           0
      1111 MEMB     8        POPS     C25      CTL2    -0.180000       12.0110           0
      1112 MEMB     8        POPS     H5R      HAL2     0.900000E-01   1.00800           0
      1113 MEMB     8        POPS     H5S      HAL2     0.900000E-01   1.00800           0
      1114 MEMB     8        POPS     C26      CTL2    -0.180000       12.0110           0
      1115 MEMB     8        POPS     H6R      HAL2     0.900000E-01   1.00800           0
      1116 MEMB     8        POPS     H6S      HAL2     0.900000E-01   1.00800           0
      1117 MEMB     8        POPS     C27      CTL2    -0.180000       12.0110           0
      1118 MEMB     8        POPS     H7R      HAL2     0.900000E-01   1.00800           0
      1119 MEMB     8        POPS     H7S      HAL2     0.900000E-01   1.00800           0
      1120 MEMB     8        POPS     C28      CTL2    -0.180000       12.0110           0
      1121 MEMB     8        POPS     H8R      HAL2     0.900000E-01   1.00800           0
      1122 MEMB     8        POPS     H8S      HAL2     0.900000E-01   1.00800           0
      1123 MEMB     8        POPS     C29      CEL1    -0.150000       12.0110           0
      1124 MEMB     8        POPS     H91      HEL1     0.150000       1.00800           0
      1125 MEMB     8        POPS     C210     CEL1    -0.150000       12.0110           0
      1126 MEMB     8        POPS     H101     HEL1     0.150000       1.00800           0
      1127 MEMB     8        POPS     C211     CTL2    -0.180000       12.0110           0
      1128 MEMB     8        POPS     H11R     HAL2     0.900000E-01   1.00800           0
      1129 MEMB     8        POPS     H11S     HAL2     0.900000E-01   1.00800           0
      1130 MEMB     8        POPS     C212     CTL2    -0.180000       12.0110           0
      1131 MEMB     8        POPS     H12R     HAL2     0.900000E-01   1.00800           0
      1132 MEMB     8        POPS     H12S     HAL2     0.900000E-01   1.00800           0
      1133 MEMB     8        POPS     C213     CTL2    -0.180000       12.0110           0
      1134 MEMB     8        POPS     H13R     HAL2     0.900000E-01   1.00800           0
      1135 MEMB     8        POPS     H13S     HAL2     0.900000E-01   1.00800           0
      1136 MEMB     8        POPS     C214     CTL2    -0.180000       12.0110           0
      1137 MEMB     8        POPS     H14R     HAL2     0.900000E-01   1.00800           0
      1138 MEMB     8        POPS     H14S     HAL2     0.900000E-01   1.00800           0
      1139 MEMB     8        POPS     C215     CTL2    -0.180000       12.0110           0
      1140 MEMB     8        POPS     H15R     HAL2     0.900000E-01   1.00800           0
      1141 MEMB     8        POPS     H15S     HAL2     0.900000E-01   1.00800           0
      1142 MEMB     8        POPS     C216     CTL2    -0.180000       12.0110           0
      1143 MEMB     8        POPS     H16R     HAL2     0.900000E-01   1.00800           0
      1144 MEMB     8        POPS     H16S     HAL2     0.900000E-01   1.00800           0
      1145 MEMB     8        POPS     C217     CTL2    -0.180000       12.0110           0
      1146 MEMB     8        POPS     H17R     HAL2     0.900000E-01   1.00800           0
      1147 MEMB     8        POPS     H17S     HAL2     0.900000E-01   1.00800           0
      1148 MEMB     8        POPS     C218     CTL3    -0.270000       12.0110           0
      1149 MEMB     8        POPS     H18R     HAL3     0.900000E-01   1.00800           0
      1150 MEMB     8        POPS     H18S     HAL3     0.900000E-01   1.00800           0
      1151 MEMB     8        POPS     H18T     HAL3     0.900000E-01   1.00800           0
      1152 MEMB     8        POPS     C33      CTL2    -0.180000       12.0110           0
      1153 MEMB     8        POPS     H3X      HAL2     0.900000E-01   1.00800           0
      1154 MEMB     8        POPS     H3Y      HAL2     0.900000E-01   1.00800           0
      1155 MEMB     8        POPS     C34      CTL2    -0.180000       12.0110           0
      1156 MEMB     8        POPS     H4X      HAL2     0.900000E-01   1.00800           0
      1157 MEMB     8        POPS     H4Y      HAL2     0.900000E-01   1.00800           0
      1158 MEMB     8        POPS     C35      CTL2    -0.180000       12.0110           0
      1159 MEMB     8        POPS     H5X      HAL2     0.900000E-01   1.00800           0
      1160 MEMB     8        POPS     H5Y      HAL2     0.900000E-01   1.00800           0
      1161 MEMB     8        POPS     C36      CTL2    -0.180000       12.0110           0
      1162 MEMB     8        POPS     H6X      HAL2     0.900000E-01   1.00800           0
      1163 MEMB     8        POPS     H6Y      HAL2     0.900000E-01   1.00800           0
      1164 MEMB     8        POPS     C37      CTL2    -0.180000       12.0110           0
      1165 MEMB     8        POPS     H7X      HAL2     0.900000E-01   1.00800           0
      1166 MEMB     8        POPS     H7Y      HAL2     0.900000E-01   1.00800           0
      1167 MEMB     8        POPS     C38      CTL2    -0.180000       12.0110           0
      1168 MEMB     8        POPS     H8X      HAL2     0.900000E-01   1.00800           0
      1169 MEMB     8        POPS     H8Y      HAL2     0.900000E-01   1.00800           0
      1170 MEMB     8        POPS     C39      CTL2    -0.180000       12.0110           0
      1171 MEMB     8        POPS     H9X      HAL2     0.900000E-01   1.00800           0
      1172 MEMB     8        POPS     H9Y      HAL2     0.900000E-01   1.00800           0
      1173 MEMB     8        POPS     C310     CTL2    -0.180000       12.0110           0
      1174 MEMB     8        POPS     H10X     HAL2     0.900000E-01   1.00800           0
      1175 MEMB     8        POPS     H10Y     HAL2     0.900000E-01   1.00800           0
      1176 MEMB     8        POPS     C311     CTL2    -0.180000       12.0110           0
      1177 MEMB     8        POPS     H11X     HAL2     0.900000E-01   1.00800           0
      1178 MEMB     8        POPS     H11Y     HAL2     0.900000E-01   1.00800           0
      1179 MEMB     8        POPS     C312     CTL2    -0.180000       12.0110           0
      1180 MEMB     8        POPS     H12X     HAL2     0.900000E-01   1.00800           0
      1181 MEMB     8        POPS     H12Y     HAL2     0.900000E-01   1.00800           0
      1182 MEMB     8        POPS     C313     CTL2    -0.180000       12.0110           0
      1183 MEMB     8        POPS     H13X     HAL2     0.900000E-01   1.00800           0
      1184 MEMB     8        POPS     H13Y     HAL2     0.900000E-01   1.00800           0
      1185 MEMB     8        POPS     C314     CTL2    -0.180000       12.0110           0
      1186 MEMB     8        POPS     H14X     HAL2     0.900000E-01   1.00800           0
      1187 MEMB     8        POPS     H14Y     HAL2     0.900000E-01   1.00800           0
      1188 MEMB     8        POPS     C315     CTL2    -0.180000       12.0110           0
      1189 MEMB     8        POPS     H15X     HAL2     0.900000E-01   1.00800           0
      1190 MEMB     8        POPS     H15Y     HAL2     0.900000E-01   1.00800           0
      1191 MEMB     8        POPS     C316     CTL3    -0.270000       12.0110           0
      1192 MEMB     8        POPS     H16X     HAL3     0.900000E-01   1.00800           0
      1193 MEMB     8        POPS     H16Y     HAL3     0.900000E-01   1.00800           0
      1194 MEMB     8        POPS     H16Z     HAL3     0.900000E-01   1.00800           0
      1195 MEMB     9        POPC     N        NTL     -0.600000       14.0070           0
      1196 MEMB     9        POPC     C12      CTL2    -0.100000       12.0110           0
      1197 MEMB     9        POPC     H12A     HL       0.250000       1.00800           0
      1198 MEMB     9        POPC     H12B     HL       0.250000       1.00800           0
      1199 MEMB     9        POPC     C13      CTL5    -0.350000       12.0110           0
      1200 MEMB     9        POPC     H13A     HL       0.250000       1.00800           0
      1201 MEMB     9        POPC     H13B     HL       0.250000       1.00800           0
      1202 MEMB     9        POPC     H13C     HL       0.250000       1.00800           0
      1203 MEMB     9        POPC     C14      CTL5    -0.350000       12.0110           0
      1204 MEMB     9        POPC     H14A     HL       0.250000       1.00800           0
      1205 MEMB     9        POPC     H14B     HL       0.250000       1.00800           0
      1206 MEMB     9        POPC     H14C     HL       0.250000       1.00800           0
      1207 MEMB     9        POPC     C15      CTL5    -0.350000       12.0110           0
      1208 MEMB     9        POPC     H15A     HL       0.250000       1.00800           0
      1209 MEMB     9        POPC     H15B     HL       0.250000       1.00800           0
      1210 MEMB     9        POPC     H15C     HL       0.250000       1.00800           0
      1211 MEMB     9        POPC     C11      CTL2    -0.800000E-01   12.0110           0
      1212 MEMB     9        POPC     H11A     HAL2     0.900000E-01   1.00800           0
      1213 MEMB     9        POPC     H11B     HAL2     0.900000E-01   1.00800           0
      1214 MEMB     9        POPC     P        PL       1.500000       30.9740           0
      1215 MEMB     9        POPC     O13      O2L     -0.780000       15.9994           0
      1216 MEMB     9        POPC     O14      O2L     -0.780000       15.9994           0
      1217 MEMB     9        POPC     O12      OSLP    -0.570000       15.9994           0
      1218 MEMB     9        POPC     O11      OSLP    -0.570000       15.9994           0
      1219 MEMB     9        POPC     C1       CTL2    -0.800000E-01   12.0110           0
      1220 MEMB     9        POPC     HA       HAL2     0.900000E-01   1.00800           0
      1221 MEMB     9        POPC     HB       HAL2     0.900000E-01   1.00800           0
      1222 MEMB     9        POPC     C2       CTL1     0.170000       12.0110           0
      1223 MEMB     9        POPC     HS       HAL1     0.900000E-01   1.00800           0
      1224 MEMB     9        POPC     O21      OSL     -0.490000       15.9994           0
      1225 MEMB     9        POPC     C21      CL       0.900000       12.0110           0
      1226 MEMB     9        POPC     O22      OBL     -0.630000       15.9994           0
      1227 MEMB     9        POPC     C22      CTL2    -0.220000       12.0110           0
      1228 MEMB     9        POPC     H2R      HAL2     0.900000E-01   1.00800           0
      1229 MEMB     9        POPC     H2S      HAL2     0.900000E-01   1.00800           0
      1230 MEMB     9        POPC     C3       CTL2     0.800000E-01   12.0110           0
      1231 MEMB     9        POPC     HX       HAL2     0.900000E-01   1.00800           0
      1232 MEMB     9        POPC     HY       HAL2     0.900000E-01   1.00800           0
      1233 MEMB     9        POPC     O31      OSL     -0.490000       15.9994           0
      1234 MEMB     9        POPC     C31      CL       0.900000       12.0110           0
      1235 MEMB     9        POPC     O32      OBL     -0.630000       15.9994           0
      1236 MEMB     9        POPC     C32      CTL2    -0.220000       12.0110           0
      1237 MEMB     9        POPC     H2X      HAL2     0.900000E-01   1.00800           0
      1238 MEMB     9        POPC     H2Y      HAL2     0.900000E-01   1.00800           0
      1239 MEMB     9        POPC     C23      CTL2    -0.180000       12.0110           0
      1240 MEMB     9        POPC     H3R      HAL2     0.900000E-01   1.00800           0
      1241 MEMB     9        POPC     H3S      HAL2     0.900000E-01   1.00800           0
      1242 MEMB     9        POPC     C24      CTL2    -0.180000       12.0110           0
      1243 MEMB     9        POPC     H4R      HAL2     0.900000E-01   1.00800           0
      1244 MEMB     9        POPC     H4S      HAL2     0.900000E-01   1.00800           0
      1245 MEMB     9        POPC     C25      CTL2    -0.180000       12.0110           0
      1246 MEMB     9        POPC     H5R      HAL2     0.900000E-01   1.00800           0
      1247 MEMB     9        POPC     H5S      HAL2     0.900000E-01   1.00800           0
      1248 MEMB     9        POPC     C26      CTL2    -0.180000       12.0110           0
      1249 MEMB     9        POPC     H6R      HAL2     0.900000E-01   1.00800           0
      1250 MEMB     9        POPC     H6S      HAL2     0.900000E-01   1.00800           0
      1251 MEMB     9        POPC     C27      CTL2    -0.180000       12.0110           0
      1252 MEMB     9        POPC     H7R      HAL2     0.900000E-01   1.00800           0
      1253 MEMB     9        POPC     H7S      HAL2     0.900000E-01   1.00800           0
      1254 MEMB     9        POPC     C28      CTL2    -0.180000       12.0110           0
      1255 MEMB     9        POPC     H8R      HAL2     0.900000E-01   1.00800           0
      1256 MEMB     9        POPC     H8S      HAL2     0.900000E-01   1.00800           0
      1257 MEMB     9        POPC     C29      CEL1    -0.150000       12.0110           0
      1258 MEMB     9        POPC     H91      HEL1     0.150000       1.00800           0
      1259 MEMB     9        POPC     C210     CEL1    -0.150000       12.0110           0
      1260 MEMB     9        POPC     H101     HEL1     0.150000       1.00800           0
      1261 MEMB     9        POPC     C211     CTL2    -0.180000       12.0110           0
      1262 MEMB     9        POPC     H11R     HAL2     0.900000E-01   1.00800           0
      1263 MEMB     9        POPC     H11S     HAL2     0.900000E-01   1.00800           0
      1264 MEMB     9        POPC     C212     CTL2    -0.180000       12.0110           0
      1265 MEMB     9        POPC     H12R     HAL2     0.900000E-01   1.00800           0
      1266 MEMB     9        POPC     H12S     HAL2     0.900000E-01   1.00800           0
      1267 MEMB     9        POPC     C213     CTL2    -0.180000       12.0110           0
      1268 MEMB     9        POPC     H13R     HAL2     0.900000E-01   1.00800           0
      1269 MEMB     9        POPC     H13S     HAL2     0.900000E-01   1.00800           0
      1270 MEMB     9        POPC     C214     CTL2    -0.180000       12.0110           0
      1271 MEMB     9        POPC     H14R     HAL2     0.900000E-01   1.00800           0
      1272 MEMB     9        POPC     H14S     HAL2     0.900000E-01   1.00800           0
      1273 MEMB     9        POPC     C215     CTL2    -0.180000       12.0110           0
      1274 MEMB     9        POPC     H15R     HAL2     0.900000E-01   1.00800           0
      1275 MEMB     9        POPC     H15S     HAL2     0.900000E-01   1.00800           0
      1276 MEMB     9        POPC     C216     CTL2    -0.180000       12.0110           0
      1277 MEMB     9        POPC     H16R     HAL2     0.900000E-01   1.00800           0
      1278 MEMB     9        POPC     H16S     HAL2     0.900000E-01   1.00800           0
      1279 MEMB     9        POPC     C217     CTL2    -0.180000       12.0110           0
      1280 MEMB     9        POPC     H17R     HAL2     0.900000E-01   1.00800           0
      1281 MEMB     9        POPC     H17S     HAL2     0.900000E-01   1.00800           0
      1282 MEMB     9        POPC     C218     CTL3    -0.270000       12.0110           0
      1283 MEMB     9        POPC     H18R     HAL3     0.900000E-01   1.00800           0
      1284 MEMB     9        POPC     H18S     HAL3     0.900000E-01   1.00800           0
      1285 MEMB     9        POPC     H18T     HAL3     0.900000E-01   1.00800           0
      1286 MEMB     9        POPC     C33      CTL2    -0.180000       12.0110           0
      1287 MEMB     9        POPC     H3X      HAL2     0.900000E-01   1.00800           0
      1288 MEMB     9        POPC     H3Y      HAL2     0.900000E-01   1.00800           0
      1289 MEMB     9        POPC     C34      CTL2    -0.180000       12.0110           0
      1290 MEMB     9        POPC     H4X      HAL2     0.900000E-01   1.00800           0
      1291 MEMB     9        POPC     H4Y      HAL2     0.900000E-01   1.00800           0
      1292 MEMB     9        POPC     C35      CTL2    -0.180000       12.0110           0
      1293 MEMB     9        POPC     H5X      HAL2     0.900000E-01   1.00800           0
      1294 MEMB     9        POPC     H5Y      HAL2     0.900000E-01   1.00800           0
      1295 MEMB     9        POPC     C36      CTL2    -0.180000       12.0110           0
      1296 MEMB     9        POPC     H6X      HAL2     0.900000E-01   1.00800           0
      1297 MEMB     9        POPC     H6Y      HAL2     0.900000E-01   1.00800           0
      1298 MEMB     9        POPC     C37      CTL2    -0.180000       12.0110           0
      1299 MEMB     9        POPC     H7X      HAL2     0.900000E-01   1.00800           0
      1300 MEMB     9        POPC     H7Y      HAL2     0.900000E-01   1.00800           0
      1301 MEMB     9        POPC     C38      CTL2    -0.180000       12.0110           0
      1302 MEMB     9        POPC     H8X      HAL2     0.900000E-01   1.00800           0
      1303 MEMB     9        POPC     H8Y      HAL2     0.900000E-01   1.00800           0
      1304 MEMB     9        POPC     C39      CTL2    -0.180000       12.0110           0
      1305 MEMB     9        POPC     H9X      HAL2     0.900000E-01   1.00800           0
      1306 MEMB     9        POPC     H9Y      HAL2     0.900000E-01   1.00800           0
      1307 MEMB     9        POPC     C310     CTL2    -0.180000       12.0110           0
      1308 MEMB     9        POPC     H10X     HAL2     0.900000E-01   1.00800           0
      1309 MEMB     9        POPC     H10Y     HAL2     0.900000E-01   1.00800           0
      1310 MEMB     9        POPC     C311     CTL2    -0.180000       12.0110           0
      1311 MEMB     9        POPC     H11X     HAL2     0.900000E-01   1.00800           0
      1312 MEMB     9        POPC     H11Y     HAL2     0.900000E-01   1.00800           0
      1313 MEMB     9        POPC     C312     CTL2    -0.180000       12.0110           0
      1314 MEMB     9        POPC     H12X     HAL2     0.900000E-01   1.00800           0
      1315 MEMB     9        POPC     H12Y     HAL2     0.900000E-01   1.00800           0
      1316 MEMB     9        POPC     C313     CTL2    -0.180000       12.0110           0
      1317 MEMB     9        POPC     H13X     HAL2     0.900000E-01   1.00800           0
      1318 MEMB     9        POPC     H13Y     HAL2     0.900000E-01   1.00800           0
      1319 MEMB     9        POPC     C314     CTL2    -0.180000       12.0110           0
      1320 MEMB     9        POPC     H14X     HAL2     0.900000E-01   1.00800           0
      1321 MEMB     9        POPC     H14Y     HAL2     0.900000E-01   1.00800           0
      1322 MEMB     9        POPC     C315     CTL2    -0.180000       12.0110           0
      1323 MEMB     9        POPC     H15X     HAL2     0.900000E-01   1.00800           0
      1324 MEMB     9        POPC     H15Y     HAL2     0.900000E-01   1.00800           0
      1325 MEMB     9        POPC     C316     CTL3    -0.270000       12.0110           0
      1326 MEMB     9        POPC     H16X     HAL3     0.900000E-01   1.00800           0
      1327 MEMB     9        POPC     H16Y     HAL3     0.900000E-01   1.00800           0
      1328 MEMB     9        POPC     H16Z     HAL3     0.900000E-01   1.00800           0
      1329 MEMB     10       POPC     N        NTL     -0.600000       14.0070           0
      1330 MEMB     10       POPC     C12      CTL2    -0.100000       12.0110           0
      1331 MEMB     10       POPC     H12A     HL       0.250000       1.00800           0
      1332 MEMB     10       POPC     H12B     HL       0.250000       1.00800           0
      1333 MEMB     10       POPC     C13      CTL5    -0.350000       12.0110           0
      1334 MEMB     10       POPC     H13A     HL       0.250000       1.00800           0
      1335 MEMB     10       POPC     H13B     HL       0.250000       1.00800           0
      1336 MEMB     10       POPC     H13C     HL       0.250000       1.00800           0
      1337 MEMB     10       POPC     C14      CTL5    -0.350000       12.0110           0
      1338 MEMB     10       POPC     H14A     HL       0.250000       1.00800           0
      1339 MEMB     10       POPC     H14B     HL       0.250000       1.00800           0
      1340 MEMB     10       POPC     H14C     HL       0.250000       1.00800           0
      1341 MEMB     10       POPC     C15      CTL5    -0.350000       12.0110           0
      1342 MEMB     10       POPC     H15A     HL       0.250000       1.00800           0
      1343 MEMB     10       POPC     H15B     HL       0.250000       1.00800           0
      1344 MEMB     10       POPC     H15C     HL       0.250000       1.00800           0
      1345 MEMB     10       POPC     C11      CTL2    -0.800000E-01   12.0110           0
      1346 MEMB     10       POPC     H11A     HAL2     0.900000E-01   1.00800           0
      1347 MEMB     10       POPC     H11B     HAL2     0.900000E-01   1.00800           0
      1348 MEMB     10       POPC     P        PL       1.500000       30.9740           0
      1349 MEMB     10       POPC     O13      O2L     -0.780000       15.9994           0
      1350 MEMB     10       POPC     O14      O2L     -0.780000       15.9994           0
      1351 MEMB     10       POPC     O12      OSLP    -0.570000       15.9994           0
      1352 MEMB     10       POPC     O11      OSLP    -0.570000       15.9994           0
      1353 MEMB     10       POPC     C1       CTL2    -0.800000E-01   12.0110           0
      1354 MEMB     10       POPC     HA       HAL2     0.900000E-01   1.00800           0
      1355 MEMB     10       POPC     HB       HAL2     0.900000E-01   1.00800           0
      1356 MEMB     10       POPC     C2       CTL1     0.170000       12.0110           0
      1357 MEMB     10       POPC     HS       HAL1     0.900000E-01   1.00800           0
      1358 MEMB     10       POPC     O21      OSL     -0.490000       15.9994           0
      1359 MEMB     10       POPC     C21      CL       0.900000       12.0110           0
      1360 MEMB     10       POPC     O22      OBL     -0.630000       15.9994           0
      1361 MEMB     10       POPC     C22      CTL2    -0.220000       12.0110           0
      1362 MEMB     10       POPC     H2R      HAL2     0.900000E-01   1.00800           0
      1363 MEMB     10       POPC     H2S      HAL2     0.900000E-01   1.00800           0
      1364 MEMB     10       POPC     C3       CTL2     0.800000E-01   12.0110           0
      1365 MEMB     10       POPC     HX       HAL2     0.900000E-01   1.00800           0
      1366 MEMB     10       POPC     HY       HAL2     0.900000E-01   1.00800           0
      1367 MEMB     10       POPC     O31      OSL     -0.490000       15.9994           0
      1368 MEMB     10       POPC     C31      CL       0.900000       12.0110           0
      1369 MEMB     10       POPC     O32      OBL     -0.630000       15.9994           0
      1370 MEMB     10       POPC     C32      CTL2    -0.220000       12.0110           0
      1371 MEMB     10       POPC     H2X      HAL2     0.900000E-01   1.00800           0
      1372 MEMB     10       POPC     H2Y      HAL2     0.900000E-01   1.00800           0
      1373 MEMB     10       POPC     C23      CTL2    -0.180000       12.0110           0
      1374 MEMB     10       POPC     H3R      HAL2     0.900000E-01   1.00800           0
      1375 MEMB     10       POPC     H3S      HAL2     0.900000E-01   1.00800           0
      1376 MEMB     10       POPC     C24      CTL2    -0.180000       12.0110           0
      1377 MEMB     10       POPC     H4R      HAL2     0.900000E-01   1.00800           0
      1378 MEMB     10       POPC     H4S      HAL2     0.900000E-01   1.00800           0
      1379 MEMB     10       POPC     C25      CTL2    -0.180000       12.0110           0
      1380 MEMB     10       POPC     H5R      HAL2     0.900000E-01   1.00800           0
      1381 MEMB     10       POPC     H5S      HAL2     0.900000E-01   1.00800           0
      1382 MEMB     10       POPC     C26      CTL2    -0.180000       12.0110           0
      1383 MEMB     10       POPC     H6R      HAL2     0.900000E-01   1.00800           0
      1384 MEMB     10       POPC     H6S      HAL2     0.900000E-01   1.00800           0
      1385 MEMB     10       POPC     C27      CTL2    -0.180000       12.0110           0
      1386 MEMB     10       POPC     H7R      HAL2     0.900000E-01   1.00800           0
      1387 MEMB     10       POPC     H7S      HAL2     0.900000E-01   1.00800           0
      1388 MEMB     10       POPC     C28      CTL2    -0.180000       12.0110           0
      1389 MEMB     10       POPC     H8R      HAL2     0.900000E-01   1.00800           0
      1390 MEMB     10       POPC     H8S      HAL2     0.900000E-01   1.00800           0
      1391 MEMB     10       POPC     C29      CEL1    -0.150000       12.0110           0
      1392 MEMB     10       POPC     H91      HEL1     0.150000       1.00800           0
      1393 MEMB     10       POPC     C210     CEL1    -0.150000       12.0110           0
      1394 MEMB     10       POPC     H101     HEL1     0.150000       1.00800           0
      1395 MEMB     10       POPC     C211     CTL2    -0.180000       12.0110           0
      1396 MEMB     10       POPC     H11R     HAL2     0.900000E-01   1.00800           0
      1397 MEMB     10       POPC     H11S     HAL2     0.900000E-01   1.00800           0
      1398 MEMB     10       POPC     C212     CTL2    -0.180000       12.0110           0
      1399 MEMB     10       POPC     H12R     HAL2     0.900000E-01   1.00800           0
      1400 MEMB     10       POPC     H12S     HAL2     0.900000E-01   1.00800           0
      1401 MEMB     10       POPC     C213     CTL2    -0.180000       12.0110           0
      1402 MEMB     10       POPC     H13R     HAL2     0.900000E-01   1.00800           0
      1403 MEMB     10       POPC     H13S     HAL2     0.900000E-01   1.00800           0
      1404 MEMB     10       POPC     C214     CTL2    -0.180000       12.0110           0
      1405 MEMB     10       POPC     H14R     HAL2     0.900000E-01   1.00800           0
      1406 MEMB     10       POPC     H14S     HAL2     0.900000E-01   1.00800           0
      1407 MEMB     10       POPC     C215     CTL2    -0.180000       12.0110           0
      1408 MEMB     10       POPC     H15R     HAL2     0.900000E-01   1.00800           0
      1409 MEMB     10       POPC     H15S     HAL2     0.900000E-01   1.00800           0
      1410 MEMB     10       POPC     C216     CTL2    -0.180000       12.0110           0
      1411 MEMB     10       POPC     H16R     HAL2     0.900000E-01   1.00800           0
      1412 MEMB     10       POPC     H16S     HAL2     0.900000E-01   1.00800           0
      1413 MEMB     10       POPC     C217     CTL2    -0.180000       12.0110           0
      1414 MEMB     10       POPC     H17R     HAL2     0.900000E-01   1.00800           0
      1415 MEMB     10       POPC     H17S     HAL2     0.900000E-01   1.00800           0
      1416 MEMB     10       POPC     C218     CTL3    -0.270000       12.0110           0
      1417 MEMB     10       POPC     H18R     HAL3     0.900000E-01   1.00800           0
      1418 MEMB     10       POPC     H18S     HAL3     0.900000E-01   1.00800           0
      1419 MEMB     10       POPC     H18T     HAL3     0.900000E-01   1.00800           0
      1420 MEMB     10       POPC     C33      CTL2    -0.180000       12.0110           0
      1421 MEMB     10       POPC     H3X      HAL2     0.900000E-01   1.00800           0
      1422 MEMB     10       POPC     H3Y      HAL2     0.900000E-01   1.00800           0
      1423 MEMB     10       POPC     C34      CTL2    -0.180000       12.0110           0
      1424 MEMB     10       POPC     H4X      HAL2     0.900000E-01   1.00800           0
      1425 MEMB     10       POPC     H4Y      HAL2     0.900000E-01   1.00800           0
      1426 MEMB     10       POPC     C35      CTL2    -0.180000       12.0110           0
      1427 MEMB     10       POPC     H5X      HAL2     0.900000E-01   1.00800           0
      1428 MEMB     10       POPC     H5Y      HAL2     0.900000E-01   1.00800           0
      1429 MEMB     10       POPC     C36      CTL2    -0.180000       12.0110           0
      1430 MEMB     10       POPC     H6X      HAL2     0.900000E-01   1.00800           0
      1431 MEMB     10       POPC     H6Y      HAL2     0.900000E-01   1.00800           0
      1432 MEMB     10       POPC     C37      CTL2    -0.180000       12.0110           0
      1433 MEMB     10       POPC     H7X      HAL2     0.900000E-01   1.00800           0
      1434 MEMB     10       POPC     H7Y      HAL2     0.900000E-01   1.00800           0
      1435 MEMB     10       POPC     C38      CTL2    -0.180000       12.0110           0
      1436 MEMB     10       POPC     H8X      HAL2     0.900000E-01   1.00800           0
      1437 MEMB     10       POPC     H8Y      HAL2     0.900000E-01   1.00800           0
      1438 MEMB     10       POPC     C39      CTL2    -0.180000       12.0110           0
      1439 MEMB     10       POPC     H9X      HAL2     0.900000E-01   1.00800           0
      1440 MEMB     10       POPC     H9Y      HAL2     0.900000E-01   1.00800           0
      1441 MEMB     10       POPC     C310     CTL2    -0.180000       12.0110           0
      1442 MEMB     10       POPC     H10X     HAL2     0.900000E-01   1.00800           0
      1443 MEMB     10       POPC     H10Y     HAL2     0.900000E-01   1.00800           0
      1444 MEMB     10       POPC     C311     CTL2    -0.180000       12.0110           0
      1445 MEMB     10       POPC     H11X     HAL2     0.900000E-01   1.00800           0
      1446 MEMB     10       POPC     H11Y     HAL2     0.900000E-01   1.00800           0
      1447 MEMB     10       POPC     C312     CTL2    -0.180000       12.0110           0
      1448 MEMB     10       POPC     H12X     HAL2     0.900000E-01   1.00800           0
      1449 MEMB     10       POPC     H12Y     HAL2     0.900000E-01   1.00800           0
      1450 MEMB     10       POPC     C313     CTL2    -0.180000       12.0110           0
      1451 MEMB     10       POPC     H13X     HAL2     0.900000E-01   1.00800           0
      1452 MEMB     10       POPC     H13Y     HAL2     0.900000E-01   1.00800           0
      1453 MEMB     10       POPC     C314     CTL2    -0.180000       12.0110           0
      1454 MEMB     10       POPC     H14X     HAL2     0.900000E-01   1.00800           0
      1455 MEMB     10       POPC     H14Y     HAL2     0.900000E-01   1.00800           0
      1456 MEMB     10       POPC     C315     CTL2    -0.180000       12.0110           0
      1457 MEMB     10       POPC     H15X     HAL2     0.900000E-01   1.00800           0
      1458 MEMB     10       POPC     H15Y     HAL2     0.900000E-01   1.00800           0
      1459 MEMB     10       POPC     C316     CTL3    -0.270000       12.0110           0
      1460 MEMB     10       POPC     H16X     HAL3     0.900000E-01   1.00800           0
      1461 MEMB     10       POPC     H16Y     HAL3     0.900000E-01   1.00800           0
      1462 MEMB     10       POPC     H16Z     HAL3     0.900000E-01   1.00800           0
      1463 MEMB     11       POPC     N        NTL     -0.600000       14.0070           0
      1464 MEMB     11       POPC     C12      CTL2    -0.100000       12.0110           0
      1465 MEMB     11       POPC     H12A     HL       0.250000       1.00800           0
      1466 MEMB     11       POPC     H12B     HL       0.250000       1.00800           0
      1467 MEMB     11       POPC     C13      CTL5    -0.350000       12.0110           0
      1468 MEMB     11       POPC     H13A     HL       0.250000       1.00800           0
      1469 MEMB     11       POPC     H13B     HL       0.250000       1.00800           0
      1470 MEMB     11       POPC     H13C     HL       0.250000       1.00800           0
      1471 MEMB     11       POPC     C14      CTL5    -0.350000       12.0110           0
      1472 MEMB     11       POPC     H14A     HL       0.250000       1.00800           0
      1473 MEMB     11       POPC     H14B     HL       0.250000       1.00800           0
      1474 MEMB     11       POPC     H14C     HL       0.250000       1.00800           0
      1475 MEMB     11       POPC     C15      CTL5    -0.350000       12.0110           0
      1476 MEMB     11       POPC     H15A     HL       0.250000       1.00800           0
      1477 MEMB     11       POPC     H15B     HL       0.250000       1.00800           0
      1478 MEMB     11       POPC     H15C     HL       0.250000       1.00800           0
      1479 MEMB     11       POPC     C11      CTL2    -0.800000E-01   12.0110           0
      1480 MEMB     11       POPC     H11A     HAL2     0.900000E-01   1.00800           0
      1481 MEMB     11       POPC     H11B     HAL2     0.900000E-01   1.00800           0
      1482 MEMB     11       POPC     P        PL       1.500000       30.9740           0
      1483 MEMB     11       POPC     O13      O2L     -0.780000       15.9994           0
      1484 MEMB     11       POPC     O14      O2L     -0.780000       15.9994           0
      1485 MEMB     11       POPC     O12      OSLP    -0.570000       15.9994           0
      1486 MEMB     11       POPC     O11      OSLP    -0.570000       15.9994           0
      1487 MEMB     11       POPC     C1       CTL2    -0.800000E-01   12.0110           0
      1488 MEMB     11       POPC     HA       HAL2     0.900000E-01   1.00800           0
      1489 MEMB     11       POPC     HB       HAL2     0.900000E-01   1.00800           0
      1490 MEMB     11       POPC     C2       CTL1     0.170000       12.0110           0
      1491 MEMB     11       POPC     HS       HAL1     0.900000E-01   1.00800           0
      1492 MEMB     11       POPC     O21      OSL     -0.490000       15.9994           0
      1493 MEMB     11       POPC     C21      CL       0.900000       12.0110           0
      1494 MEMB     11       POPC     O22      OBL     -0.630000       15.9994           0
      1495 MEMB     11       POPC     C22      CTL2    -0.220000       12.0110           0
      1496 MEMB     11       POPC     H2R      HAL2     0.900000E-01   1.00800           0
      1497 MEMB     11       POPC     H2S      HAL2     0.900000E-01   1.00800           0
      1498 MEMB     11       POPC     C3       CTL2     0.800000E-01   12.0110           0
      1499 MEMB     11       POPC     HX       HAL2     0.900000E-01   1.00800           0
      1500 MEMB     11       POPC     HY       HAL2     0.900000E-01   1.00800           0
      1501 MEMB     11       POPC     O31      OSL     -0.490000       15.9994           0
      1502 MEMB     11       POPC     C31      CL       0.900000       12.0110           0
      1503 MEMB     11       POPC     O32      OBL     -0.630000       15.9994           0
      1504 MEMB     11       POPC     C32      CTL2    -0.220000       12.0110           0
      1505 MEMB     11       POPC     H2X      HAL2     0.900000E-01   1.00800           0
      1506 MEMB     11       POPC     H2Y      HAL2     0.900000E-01   1.00800           0
      1507 MEMB     11       POPC     C23      CTL2    -0.180000       12.0110           0
      1508 MEMB     11       POPC     H3R      HAL2     0.900000E-01   1.00800           0
      1509 MEMB     11       POPC     H3S      HAL2     0.900000E-01   1.00800           0
      1510 MEMB     11       POPC     C24      CTL2    -0.180000       12.0110           0
      1511 MEMB     11       POPC     H4R      HAL2     0.900000E-01   1.00800           0
      1512 MEMB     11       POPC     H4S      HAL2     0.900000E-01   1.00800           0
      1513 MEMB     11       POPC     C25      CTL2    -0.180000       12.0110           0
      1514 MEMB     11       POPC     H5R      HAL2     0.900000E-01   1.00800           0
      1515 MEMB     11       POPC     H5S      HAL2     0.900000E-01   1.00800           0
      1516 MEMB     11       POPC     C26      CTL2    -0.180000       12.0110           0
      1517 MEMB     11       POPC     H6R      HAL2     0.900000E-01   1.00800           0
      1518 MEMB     11       POPC     H6S      HAL2     0.900000E-01   1.00800           0
      1519 MEMB     11       POPC     C27      CTL2    -0.180000       12.0110           0
      1520 MEMB     11       POPC     H7R      HAL2     0.900000E-01   1.00800           0
      1521 MEMB     11       POPC     H7S      HAL2     0.900000E-01   1.00800           0
      1522 MEMB     11       POPC     C28      CTL2    -0.180000       12.0110           0
      1523 MEMB     11       POPC     H8R      HAL2     0.900000E-01   1.00800           0
      1524 MEMB     11       POPC     H8S      HAL2     0.900000E-01   1.00800           0
      1525 MEMB     11       POPC     C29      CEL1    -0.150000       12.0110           0
      1526 MEMB     11       POPC     H91      HEL1     0.150000       1.00800           0
      1527 MEMB     11       POPC     C210     CEL1    -0.150000       12.0110           0
      1528 MEMB     11       POPC     H101     HEL1     0.150000       1.00800           0
      1529 MEMB     11       POPC     C211     CTL2    -0.180000       12.0110           0
      1530 MEMB     11       POPC     H11R     HAL2     0.900000E-01   1.00800           0
      1531 MEMB     11       POPC     H11S     HAL2     0.900000E-01   1.00800           0
      1532 MEMB     11       POPC     C212     CTL2    -0.180000       12.0110           0
      1533 MEMB     11       POPC     H12R     HAL2     0.900000E-01   1.00800           0
      1534 MEMB     11       POPC     H12S     HAL2     0.900000E-01   1.00800           0
      1535 MEMB     11       POPC     C213     CTL2    -0.180000       12.0110           0
      1536 MEMB     11       POPC     H13R     HAL2     0.900000E-01   1.00800           0
      1537 MEMB     11       POPC     H13S     HAL2     0.900000E-01   1.00800           0
      1538 MEMB     11       POPC     C214     CTL2    -0.180000       12.0110           0
      1539 MEMB     11       POPC     H14R     HAL2     0.900000E-01   1.00800           0
      1540 MEMB     11       POPC     H14S     HAL2     0.900000E-01   1.00800           0
      1541 MEMB     11       POPC     C215     CTL2    -0.180000       12.0110           0
      1542 MEMB     11       POPC     H15R     HAL2     0.900000E-01   1.00800           0
      1543 MEMB     11       POPC     H15S     HAL2     0.900000E-01   1.00800           0
      1544 MEMB     11       POPC     C216     CTL2    -0.180000       12.0110           0
      1545 MEMB     11       POPC     H16R     HAL2     0.900000E-01   1.00800           0
      1546 MEMB     11       POPC     H16S     HAL2     0.900000E-01   1.00800           0
      1547 MEMB     11       POPC     C217     CTL2    -0.180000       12.0110           0
      1548 MEMB     11       POPC     H17R     HAL2     0.900000E-01   1.00800           0
      1549 MEMB     11       POPC     H17S     HAL2     0.900000E-01   1.00800           0
      1550 MEMB     11       POPC     C218     CTL3    -0.270000       12.0110           0
      1551 MEMB     11       POPC     H18R     HAL3     0.900000E-01   1.00800           0
      1552 MEMB     11       POPC     H18S     HAL3     0.900000E-01   1.00800           0
      1553 MEMB     11       POPC     H18T     HAL3     0.900000E-01   1.00800           0
      1554 MEMB     11       POPC     C33      CTL2    -0.180000       12.0110           0
      1555 MEMB     11       POPC     H3X      HAL2     0.900000E-01   1.00800           0
      1556 MEMB     11       POPC     H3Y      HAL2     0.900000E-01   1.00800           0
      1557 MEMB     11       POPC     C34      CTL2    -0.180000       12.0110           0
      1558 MEMB     11       POPC     H4X      HAL2     0.900000E-01   1.00800           0
      1559 MEMB     11       POPC     H4Y      HAL2     0.900000E-01   1.00800           0
      1560 MEMB     11       POPC     C35      CTL2    -0.180000       12.0110           0
      1561 MEMB     11       POPC     H5X      HAL2     0.900000E-01   1.00800           0
      1562 MEMB     11       POPC     H5Y      HAL2     0.900000E-01   1.00800           0
      1563 MEMB     11       POPC     C36      CTL2    -0.180000       12.0110           0
      1564 MEMB     11       POPC     H6X      HAL2     0.900000E-01   1.00800           0
      1565 MEMB     11       POPC     H6Y      HAL2     0.900000E-01   1.00800           0
      1566 MEMB     11       POPC     C37      CTL2    -0.180000       12.0110           0
      1567 MEMB     11       POPC     H7X      HAL2     0.900000E-01   1.00800           0
      1568 MEMB     11       POPC     H7Y      HAL2     0.900000E-01   1.00800           0
      1569 MEMB     11       POPC     C38      CTL2    -0.180000       12.0110           0
      1570 MEMB     11       POPC     H8X      HAL2     0.900000E-01   1.00800           0
      1571 MEMB     11       POPC     H8Y      HAL2     0.900000E-01   1.00800           0
      1572 MEMB     11       POPC     C39      CTL2    -0.180000       12.0110           0
      1573 MEMB     11       POPC     H9X      HAL2     0.900000E-01   1.00800           0
      1574 MEMB     11       POPC     H9Y      HAL2     0.900000E-01   1.00800           0
      1575 MEMB     11       POPC     C310     CTL2    -0.180000       12.0110           0
      1576 MEMB     11       POPC     H10X     HAL2     0.900000E-01   1.00800           0
      1577 MEMB     11       POPC     H10Y     HAL2     0.900000E-01   1.00800           0
      1578 MEMB     11       POPC     C311     CTL2    -0.180000       12.0110           0
      1579 MEMB     11       POPC     H11X     HAL2     0.900000E-01   1.00800           0
      1580 MEMB     11       POPC     H11Y     HAL2     0.900000E-01   1.00800           0
      1581 MEMB     11       POPC     C312     CTL2    -0.180000       12.0110           0
      1582 MEMB     11       POPC     H12X     HAL2     0.900000E-01   1.00800           0
      1583 MEMB     11       POPC     H12Y     HAL2     0.900000E-01   1.00800           0
      1584 MEMB     11       POPC     C313     CTL2    -0.180000       12.0110           0
      1585 MEMB     11       POPC     H13X     HAL2     0.900000E-01   1.00800           0
      1586 MEMB     11       POPC     H13Y     HAL2     0.900000E-01   1.00800           0
      1587 MEMB     11       POPC     C314     CTL2    -0.180000       12.0110           0
      1588 MEMB     11       POPC     H14X     HAL2     0.900000E-01   1.00800           0
      1589 MEMB     11       POPC     H14Y     HAL2     0.900000E-01   1.00800           0
      1590 MEMB     11       POPC     C315     CTL2    -0.180000       12.0110           0
      1591 MEMB     11       POPC     H15X     HAL2     0.900000E-01   1.00800           0
      1592 MEMB     11       POPC     H15Y     HAL2     0.900000E-01   1.00800           0
      1593 MEMB     11       POPC     C316     CTL3    -0.270000       12.0110           0
      1594 MEMB     11       POPC     H16X     HAL3     0.900000E-01   1.00800           0
      1595 MEMB     11       POPC     H16Y     HAL3     0.900000E-01   1.00800           0
      1596 MEMB     11       POPC     H16Z     HAL3     0.900000E-01   1.00800           0
      1597 MEMB     12       POPC     N        NTL     -0.600000       14.0070           0
      1598 MEMB     12       POPC     C12      CTL2    -0.100000       12.0110           0
      1599 MEMB     12       POPC     H12A     HL       0.250000       1.00800           0
      1600 MEMB     12       POPC     H12B     HL       0.250000       1.00800           0
      1601 MEMB     12       POPC     C13      CTL5    -0.350000       12.0110           0
      1602 MEMB     12       POPC     H13A     HL       0.250000       1.00800           0
      1603 MEMB     12       POPC     H13B     HL       0.250000       1.00800           0
      1604 MEMB     12       POPC     H13C     HL       0.250000       1.00800           0
      1605 MEMB     12       POPC     C14      CTL5    -0.350000       12.0110           0
      1606 MEMB     12       POPC     H14A     HL       0.250000       1.00800           0
      1607 MEMB     12       POPC     H14B     HL       0.250000       1.00800           0
      1608 MEMB     12       POPC     H14C     HL       0.250000       1.00800           0
      1609 MEMB     12       POPC     C15      CTL5    -0.350000       12.0110           0
      1610 MEMB     12       POPC     H15A     HL       0.250000       1.00800           0
      1611 MEMB     12       POPC     H15B     HL       0.250000       1.00800           0
      1612 MEMB     12       POPC     H15C     HL       0.250000       1.00800           0
      1613 MEMB     12       POPC     C11      CTL2    -0.800000E-01   12.0110           0
      1614 MEMB     12       POPC     H11A     HAL2     0.900000E-01   1.00800           0
      1615 MEMB     12       POPC     H11B     HAL2     0.900000E-01   1.00800           0
      1616 MEMB     12       POPC     P        PL       1.500000       30.9740           0
      1617 MEMB     12       POPC     O13      O2L     -0.780000       15.9994           0
      1618 MEMB     12       POPC     O14      O2L     -0.780000       15.9994           0
      1619 MEMB     12       POPC     O12      OSLP    -0.570000       15.9994           0
      1620 MEMB     12       POPC     O11      OSLP    -0.570000       15.9994           0
      1621 MEMB     12       POPC     C1       CTL2    -0.800000E-01   12.0110           0
      1622 MEMB     12       POPC     HA       HAL2     0.900000E-01   1.00800           0
      1623 MEMB     12       POPC     HB       HAL2     0.900000E-01   1.00800           0
      1624 MEMB     12       POPC     C2       CTL1     0.170000       12.0110           0
      1625 MEMB     12       POPC     HS       HAL1     0.900000E-01   1.00800           0
      1626 MEMB     12       POPC     O21      OSL     -0.490000       15.9994           0
      1627 MEMB     12       POPC     C21      CL       0.900000       12.0110           0
      1628 MEMB     12       POPC     O22      OBL     -0.630000       15.9994           0
      1629 MEMB     12       POPC     C22      CTL2    -0.220000       12.0110           0
      1630 MEMB     12       POPC     H2R      HAL2     0.900000E-01   1.00800           0
      1631 MEMB     12       POPC     H2S      HAL2     0.900000E-01   1.00800           0
      1632 MEMB     12       POPC     C3       CTL2     0.800000E-01   12.0110           0
      1633 MEMB     12       POPC     HX       HAL2     0.900000E-01   1.00800           0
      1634 MEMB     12       POPC     HY       HAL2     0.900000E-01   1.00800           0
      1635 MEMB     12       POPC     O31      OSL     -0.490000       15.9994           0
      1636 MEMB     12       POPC     C31      CL       0.900000       12.0110           0
      1637 MEMB     12       POPC     O32      OBL     -0.630000       15.9994           0
      1638 MEMB     12       POPC     C32      CTL2    -0.220000       12.0110           0
      1639 MEMB     12       POPC     H2X      HAL2     0.900000E-01   1.00800           0
      1640 MEMB     12       POPC     H2Y      HAL2     0.900000E-01   1.00800           0
      1641 MEMB     12       POPC     C23      CTL2    -0.180000       12.0110           0
      1642 MEMB     12       POPC     H3R      HAL2     0.900000E-01   1.00800           0
      1643 MEMB     12       POPC     H3S      HAL2     0.900000E-01   1.00800           0
      1644 MEMB     12       POPC     C24      CTL2    -0.180000       12.0110           0
      1645 MEMB     12       POPC     H4R      HAL2     0.900000E-01   1.00800           0
      1646 MEMB     12       POPC     H4S      HAL2     0.900000E-01   1.00800           0
      1647 MEMB     12       POPC     C25      CTL2    -0.180000       12.0110           0
      1648 MEMB     12       POPC     H5R      HAL2     0.900000E-01   1.00800           0
      1649 MEMB     12       POPC     H5S      HAL2     0.900000E-01   1.00800           0
      1650 MEMB     12       POPC     C26      CTL2    -0.180000       12.0110           0
      1651 MEMB     12       POPC     H6R      HAL2     0.900000E-01   1.00800           0
      1652 MEMB     12       POPC     H6S      HAL2     0.900000E-01   1.00800           0
      1653 MEMB     12       POPC     C27      CTL2    -0.180000       12.0110           0
      1654 MEMB     12       POPC     H7R      HAL2     0.900000E-01   1.00800           0
      1655 MEMB     12       POPC     H7S      HAL2     0.900000E-01   1.00800           0
      1656 MEMB     12       POPC     C28      CTL2    -0.180000       12.0110           0
      1657 MEMB     12       POPC     H8R      HAL2     0.900000E-01   1.00800           0
      1658 MEMB     12       POPC     H8S      HAL2     0.900000E-01   1.00800           0
      1659 MEMB     12       POPC     C29      CEL1    -0.150000       12.0110           0
      1660 MEMB     12       POPC     H91      HEL1     0.150000       1.00800           0
      1661 MEMB     12       POPC     C210     CEL1    -0.150000       12.0110           0
      1662 MEMB     12       POPC     H101     HEL1     0.150000       1.00800           0
      1663 MEMB     12       POPC     C211     CTL2    -0.180000       12.0110           0
      1664 MEMB     12       POPC     H11R     HAL2     0.900000E-01   1.00800           0
      1665 MEMB     12       POPC     H11S     HAL2     0.900000E-01   1.00800           0
      1666 MEMB     12       POPC     C212     CTL2    -0.180000       12.0110           0
      1667 MEMB     12       POPC     H12R     HAL2     0.900000E-01   1.00800           0
      1668 MEMB     12       POPC     H12S     HAL2     0.900000E-01   1.00800           0
      1669 MEMB     12       POPC     C213     CTL2    -0.180000       12.0110           0
      1670 MEMB     12       POPC     H13R     HAL2     0.900000E-01   1.00800           0
      1671 MEMB     12       POPC     H13S     HAL2     0.900000E-01   1.00800           0
      1672 MEMB     12       POPC     C214     CTL2    -0.180000       12.0110           0
      1673 MEMB     12       POPC     H14R     HAL2     0.900000E-01   1.00800           0
      1674 MEMB     12       POPC     H14S     HAL2     0.900000E-01   1.00800           0
      1675 MEMB     12       POPC     C215     CTL2    -0.180000       12.0110           0
      1676 MEMB     12       POPC     H15R     HAL2     0.900000E-01   1.00800           0
      1677 MEMB     12       POPC     H15S     HAL2     0.900000E-01   1.00800           0
      1678 MEMB     12       POPC     C216     CTL2    -0.180000       12.0110           0
      1679 MEMB     12       POPC     H16R     HAL2     0.900000E-01   1.00800           0
      1680 MEMB     12       POPC     H16S     HAL2     0.900000E-01   1.00800           0
      1681 MEMB     12       POPC     C217     CTL2    -0.180000       12.0110           0
      1682 MEMB     12       POPC     H17R     HAL2     0.900000E-01   1.00800           0
      1683 MEMB     12       POPC     H17S     HAL2     0.900000E-01   1.00800           0
      1684 MEMB     12       POPC     C218     CTL3    -0.270000       12.0110           0
      1685 MEMB     12       POPC     H18R     HAL3     0.900000E-01   1.00800           0
      1686 MEMB     12       POPC     H18S     HAL3     0.900000E-01   1.00800           0
      1687 MEMB     12       POPC     H18T     HAL3     0.900000E-01   1.00800           0
      1688 MEMB     12       POPC     C33      CTL2    -0.180000       12.0110           0
      1689 MEMB     12       POPC     H3X      HAL2     0.900000E-01   1.00800           0
      1690 MEMB     12       POPC     H3Y      HAL2     0.900000E-01   1.00800           0
      1691 MEMB     12       POPC     C34      CTL2    -0.180000       12.0110           0
      1692 MEMB     12       POPC     H4X      HAL2     0.900000E-01   1.00800           0
      1693 MEMB     12       POPC     H4Y      HAL2     0.900000E-01   1.00800           0
      1694 MEMB     12       POPC     C35      CTL2    -0.180000       12.0110           0
      1695 MEMB     12       POPC     H5X      HAL2     0.900000E-01   1.00800           0
      1696 MEMB     12       POPC     H5Y      HAL2     0.900000E-01   1.00800           0
      1697 MEMB     12       POPC     C36      CTL2    -0.180000       12.0110           0
      1698 MEMB     12       POPC     H6X      HAL2     0.900000E-01   1.00800           0
      1699 MEMB     12       POPC     H6Y      HAL2     0.900000E-01   1.00800           0
      1700 MEMB     12       POPC     C37      CTL2    -0.180000       12.0110           0
      1701 MEMB     12       POPC     H7X      HAL2     0.900000E-01   1.00800           0
      1702 MEMB     12       POPC     H7Y      HAL2     0.900000E-01   1.00800           0
      1703 MEMB     12       POPC     C38      CTL2    -0.180000       12.0110           0
      1704 MEMB     12       POPC     H8X      HAL2     0.900000E-01   1.00800           0
      1705 MEMB     12       POPC     H8Y      HAL2     0.900000E-01   1.00800           0
      1706 MEMB     12       POPC     C39      CTL2    -0.180000       12.0110           0
      1707 MEMB     12       POPC     H9X      HAL2     0.900000E-01   1.00800           0
      1708 MEMB     12       POPC     H9Y      HAL2     0.900000E-01   1.00800           0
      1709 MEMB     12       POPC     C310     CTL2    -0.180000       12.0110           0
      1710 MEMB     12       POPC     H10X     HAL2     0.900000E-01   1.00800           0
      1711 MEMB     12       POPC     H10Y     HAL2     0.900000E-01   1.00800           0
      1712 MEMB     12       POPC     C311     CTL2    -0.180000       12.0110           0
      1713 MEMB     12       POPC     H11X     HAL2     0.900000E-01   1.00800           0
      1714 MEMB     12       POPC     H11Y     HAL2     0.900000E-01   1.00800           0
      1715 MEMB     12       POPC     C312     CTL2    -0.180000       12.0110           0
      1716 MEMB     12       POPC     H12X     HAL2     0.900000E-01   1.00800           0
      1717 MEMB     12       POPC     H12Y     HAL2     0.900000E-01   1.00800           0
      1718 MEMB     12       POPC     C313     CTL2    -0.180000       12.0110           0
      1719 MEMB     12       POPC     H13X     HAL2     0.900000E-01   1.00800           0
      1720 MEMB     12       POPC     H13Y     HAL2     0.900000E-01   1.00800           0
      1721 MEMB     12       POPC     C314     CTL2    -0.180000       12.0110           0
      1722 MEMB     12       POPC     H14X     HAL2     0.900000E-01   1.00800           0
      1723 MEMB     12       POPC     H14Y     HAL2     0.900000E-01   1.00800           0
      1724 MEMB     12       POPC     C315     CTL2    -0.180000       12.0110           0
      1725 MEMB     12       POPC     H15X     HAL2     0.900000E-01   1.00800           0
      1726 MEMB     12       POPC     H15Y     HAL2     0.900000E-01   1.00800           0
      1727 MEMB     12       POPC     C316     CTL3    -0.270000       12.0110           0
      1728 MEMB     12       POPC     H16X     HAL3     0.900000E-01   1.00800           0
      1729 MEMB     12       POPC     H16Y     HAL3     0.900000E-01   1.00800           0
      1730 MEMB     12       POPC     H16Z     HAL3     0.900000E-01   1.00800           0
      1731 MEMB     13       POPC     N        NTL     -0.600000       14.0070           0
      1732 MEMB     13       POPC     C12      CTL2    -0.100000       12.0110           0
      1733 MEMB     13       POPC     H12A     HL       0.250000       1.00800           0
      1734 MEMB     13       POPC     H12B     HL       0.250000       1.00800           0
      1735 MEMB     13       POPC     C13      CTL5    -0.350000       12.0110           0
      1736 MEMB     13       POPC     H13A     HL       0.250000       1.00800           0
      1737 MEMB     13       POPC     H13B     HL       0.250000       1.00800           0
      1738 MEMB     13       POPC     H13C     HL       0.250000       1.00800           0
      1739 MEMB     13       POPC     C14      CTL5    -0.350000       12.0110           0
      1740 MEMB     13       POPC     H14A     HL       0.250000       1.00800           0
      1741 MEMB     13       POPC     H14B     HL       0.250000       1.00800           0
      1742 MEMB     13       POPC     H14C     HL       0.250000       1.00800           0
      1743 MEMB     13       POPC     C15      CTL5    -0.350000       12.0110           0
      1744 MEMB     13       POPC     H15A     HL       0.250000       1.00800           0
      1745 MEMB     13       POPC     H15B     HL       0.250000       1.00800           0
      1746 MEMB     13       POPC     H15C     HL       0.250000       1.00800           0
      1747 MEMB     13       POPC     C11      CTL2    -0.800000E-01   12.0110           0
      1748 MEMB     13       POPC     H11A     HAL2     0.900000E-01   1.00800           0
      1749 MEMB     13       POPC     H11B     HAL2     0.900000E-01   1.00800           0
      1750 MEMB     13       POPC     P        PL       1.500000       30.9740           0
      1751 MEMB     13       POPC     O13      O2L     -0.780000       15.9994           0
      1752 MEMB     13       POPC     O14      O2L     -0.780000       15.9994           0
      1753 MEMB     13       POPC     O12      OSLP    -0.570000       15.9994           0
      1754 MEMB     13       POPC     O11      OSLP    -0.570000       15.9994           0
      1755 MEMB     13       POPC     C1       CTL2    -0.800000E-01   12.0110           0
      1756 MEMB     13       POPC     HA       HAL2     0.900000E-01   1.00800           0
      1757 MEMB     13       POPC     HB       HAL2     0.900000E-01   1.00800           0
      1758 MEMB     13       POPC     C2       CTL1     0.170000       12.0110           0
      1759 MEMB     13       POPC     HS       HAL1     0.900000E-01   1.00800           0
      1760 MEMB     13       POPC     O21      OSL     -0.490000       15.9994           0
      1761 MEMB     13       POPC     C21      CL       0.900000       12.0110           0
      1762 MEMB     13       POPC     O22      OBL     -0.630000       15.9994           0
      1763 MEMB     13       POPC     C22      CTL2    -0.220000       12.0110           0
      1764 MEMB     13       POPC     H2R      HAL2     0.900000E-01   1.00800           0
      1765 MEMB     13       POPC     H2S      HAL2     0.900000E-01   1.00800           0
      1766 MEMB     13       POPC     C3       CTL2     0.800000E-01   12.0110           0
      1767 MEMB     13       POPC     HX       HAL2     0.900000E-01   1.00800           0
      1768 MEMB     13       POPC     HY       HAL2     0.900000E-01   1.00800           0
      1769 MEMB     13       POPC     O31      OSL     -0.490000       15.9994           0
      1770 MEMB     13       POPC     C31      CL       0.900000       12.0110           0
      1771 MEMB     13       POPC     O32      OBL     -0.630000       15.9994           0
      1772 MEMB     13       POPC     C32      CTL2    -0.220000       12.0110           0
      1773 MEMB     13       POPC     H2X      HAL2     0.900000E-01   1.00800           0
      1774 MEMB     13       POPC     H2Y      HAL2     0.900000E-01   1.00800           0
      1775 MEMB     13       POPC     C23      CTL2    -0.180000       12.0110           0
      1776 MEMB     13       POPC     H3R      HAL2     0.900000E-01   1.00800           0
      1777 MEMB     13       POPC     H3S      HAL2     0.900000E-01   1.00800           0
      1778 MEMB     13       POPC     C24      CTL2    -0.180000       12.0110           0
      1779 MEMB     13       POPC     H4R      HAL2     0.900000E-01   1.00800           0
      1780 MEMB     13       POPC     H4S      HAL2     0.900000E-01   1.00800           0
      1781 MEMB     13       POPC     C25      CTL2    -0.180000       12.0110           0
      1782 MEMB     13       POPC     H5R      HAL2     0.900000E-01   1.00800           0
      1783 MEMB     13       POPC     H5S      HAL2     0.900000E-01   1.00800           0
      1784 MEMB     13       POPC     C26      CTL2    -0.180000       12.0110           0
      1785 MEMB     13       POPC     H6R      HAL2     0.900000E-01   1.00800           0
      1786 MEMB     13       POPC     H6S      HAL2     0.900000E-01   1.00800           0
      1787 MEMB     13       POPC     C27      CTL2    -0.180000       12.0110           0
      1788 MEMB     13       POPC     H7R      HAL2     0.900000E-01   1.00800           0
      1789 MEMB     13       POPC     H7S      HAL2     0.900000E-01   1.00800           0
      1790 MEMB     13       POPC     C28      CTL2    -0.180000       12.0110           0
      1791 MEMB     13       POPC     H8R      HAL2     0.900000E-01   1.00800           0
      1792 MEMB     13       POPC     H8S      HAL2     0.900000E-01   1.00800           0
      1793 MEMB     13       POPC     C29      CEL1    -0.150000       12.0110           0
      1794 MEMB     13       POPC     H91      HEL1     0.150000       1.00800           0
      1795 MEMB     13       POPC     C210     CEL1    -0.150000       12.0110           0
      1796 MEMB     13       POPC     H101     HEL1     0.150000       1.00800           0
      1797 MEMB     13       POPC     C211     CTL2    -0.180000       12.0110           0
      1798 MEMB     13       POPC     H11R     HAL2     0.900000E-01   1.00800           0
      1799 MEMB     13       POPC     H11S     HAL2     0.900000E-01   1.00800           0
      1800 MEMB     13       POPC     C212     CTL2    -0.180000       12.0110           0
      1801 MEMB     13       POPC     H12R     HAL2     0.900000E-01   1.00800           0
      1802 MEMB     13       POPC     H12S     HAL2     0.900000E-01   1.00800           0
      1803 MEMB     13       POPC     C213     CTL2    -0.180000       12.0110           0
      1804 MEMB     13       POPC     H13R     HAL2     0.900000E-01   1.00800           0
      1805 MEMB     13       POPC     H13S     HAL2     0.900000E-01   1.00800           0
      1806 MEMB     13       POPC     C214     CTL2    -0.180000       12.0110           0
      1807 MEMB     13       POPC     H14R     HAL2     0.900000E-01   1.00800           0
      1808 MEMB     13       POPC     H14S     HAL2     0.900000E-01   1.00800           0
      1809 MEMB     13       POPC     C215     CTL2    -0.180000       12.0110           0
      1810 MEMB     13       POPC     H15R     HAL2     0.900000E-01   1.00800           0
      1811 MEMB     13       POPC     H15S     HAL2     0.900000E-01   1.00800           0
      1812 MEMB     13       POPC     C216     CTL2    -0.180000       12.0110           0
      1813 MEMB     13       POPC     H16R     HAL2     0.900000E-01   1.00800           0
      1814 MEMB     13       POPC     H16S     HAL2     0.900000E-01   1.00800           0
      1815 MEMB     13       POPC     C217     CTL2    -0.180000       12.0110           0
      1816 MEMB     13       POPC     H17R     HAL2     0.900000E-01   1.00800           0
      1817 MEMB     13       POPC     H17S     HAL2     0.900000E-01   1.00800           0
      1818 MEMB     13       POPC     C218     CTL3    -0.270000       12.0110           0
      1819 MEMB     13       POPC     H18R     HAL3     0.900000E-01   1.00800           0
      1820 MEMB     13       POPC     H18S     HAL3     0.900000E-01   1.00800           0
      1821 MEMB     13       POPC     H18T     HAL3     0.900000E-01   1.00800           0
      1822 MEMB     13       POPC     C33      CTL2    -0.180000       12.0110           0
      1823 MEMB     13       POPC     H3X      HAL2     0.900000E-01   1.00800           0
      1824 MEMB     13       POPC     H3Y      HAL2     0.900000E-01   1.00800           0
      1825 MEMB     13       POPC     C34      CTL2    -0.180000       12.0110           0
      1826 MEMB     13       POPC     H4X      HAL2     0.900000E-01   1.00800           0
      1827 MEMB     13       POPC     H4Y      HAL2     0.900000E-01   1.00800           0
      1828 MEMB     13       POPC     C35      CTL2    -0.180000       12.0110           0
      1829 MEMB     13       POPC     H5X      HAL2     0.900000E-01   1.00800           0
      1830 MEMB     13       POPC     H5Y      HAL2     0.900000E-01   1.00800           0
      1831 MEMB     13       POPC     C36      CTL2    -0.180000       12.0110           0
      1832 MEMB     13       POPC     H6X      HAL2     0.900000E-01   1.00800           0
      1833 MEMB     13       POPC     H6Y      HAL2     0.900000E-01   1.00800           0
      1834 MEMB     13       POPC     C37      CTL2    -0.180000       12.0110           0
      1835 MEMB     13       POPC     H7X      HAL2     0.900000E-01   1.00800           0
      1836 MEMB     13       POPC     H7Y      HAL2     0.900000E-01   1.00800           0
      1837 MEMB     13       POPC     C38      CTL2    -0.180000       12.0110           0
      1838 MEMB     13       POPC     H8X      HAL2     0.900000E-01   1.00800           0
      1839 MEMB     13       POPC     H8Y      HAL2     0.900000E-01   1.00800           0
      1840 MEMB     13       POPC     C39      CTL2    -0.180000       12.0110           0
      1841 MEMB     13       POPC     H9X      HAL2     0.900000E-01   1.00800           0
      1842 MEMB     13       POPC     H9Y      HAL2     0.900000E-01   1.00800           0
      1843 MEMB     13       POPC     C310     CTL2    -0.180000       12.0110           0
      1844 MEMB     13       POPC     H10X     HAL2     0.900000E-01   1.00800           0
      1845 MEMB     13       POPC     H10Y     HAL2     0.900000E-01   1.00800           0
      1846 MEMB     13       POPC     C311     CTL2    -0.180000       12.0110           0
      1847 MEMB     13       POPC     H11X     HAL2     0.900000E-01   1.00800           0
      1848 MEMB     13       POPC     H11Y     HAL2     0.900000E-01   1.00800           0
      1849 MEMB     13       POPC     C312     CTL2    -0.180000       12.0110           0
      1850 MEMB     13       POPC     H12X     HAL2     0.900000E-01   1.00800           0
      1851 MEMB     13       POPC     H12Y     HAL2     0.900000E-01   1.00800           0
      1852 MEMB     13       POPC     C313     CTL2    -0.180000       12.0110           0
      1853 MEMB     13       POPC     H13X     HAL2     0.900000E-01   1.00800           0
      1854 MEMB     13       POPC     H13Y     HAL2     0.900000E-01   1.00800           0
      1855 MEMB     13       POPC     C314     CTL2    -0.180000       12.0110           0
      1856 MEMB     13       POPC     H14X     HAL2     0.900000E-01   1.00800           0
      1857 MEMB     13       POPC     H14Y     HAL2     0.900000E-01   1.00800           0
      1858 MEMB     13       POPC     C315     CTL2    -0.180000       12.0110           0
      1859 MEMB     13       POPC     H15X     HAL2     0.900000E-01   1.00800           0
      1860 MEMB     13       POPC     H15Y     HAL2     0.900000E-01   1.00800           0
      1861 MEMB     13       POPC     C316     CTL3    -0.270000       12.0110           0
      1862 MEMB     13       POPC     H16X     HAL3     0.900000E-01   1.00800           0
      1863 MEMB     13       POPC     H16Y     HAL3     0.900000E-01   1.00800           0
      1864 MEMB     13       POPC     H16Z     HAL3     0.900000E-01   1.00800           0
      1865 MEMB     14       POPC     N        NTL     -0.600000       14.0070           0
      1866 MEMB     14       POPC     C12      CTL2    -0.100000       12.0110           0
      1867 MEMB     14       POPC     H12A     HL       0.250000       1.00800           0
      1868 MEMB     14       POPC     H12B     HL       0.250000       1.00800           0
      1869 MEMB     14       POPC     C13      CTL5    -0.350000       12.0110           0
      1870 MEMB     14       POPC     H13A     HL       0.250000       1.00800           0
      1871 MEMB     14       POPC     H13B     HL       0.250000       1.00800           0
      1872 MEMB     14       POPC     H13C     HL       0.250000       1.00800           0
      1873 MEMB     14       POPC     C14      CTL5    -0.350000       12.0110           0
      1874 MEMB     14       POPC     H14A     HL       0.250000       1.00800           0
      1875 MEMB     14       POPC     H14B     HL       0.250000       1.00800           0
      1876 MEMB     14       POPC     H14C     HL       0.250000       1.00800           0
      1877 MEMB     14       POPC     C15      CTL5    -0.350000       12.0110           0
      1878 MEMB     14       POPC     H15A     HL       0.250000       1.00800           0
      1879 MEMB     14       POPC     H15B     HL       0.250000       1.00800           0
      1880 MEMB     14       POPC     H15C     HL       0.250000       1.00800           0
      1881 MEMB     14       POPC     C11      CTL2    -0.800000E-01   12.0110           0
      1882 MEMB     14       POPC     H11A     HAL2     0.900000E-01   1.00800           0
      1883 MEMB     14       POPC     H11B     HAL2     0.900000E-01   1.00800           0
      1884 MEMB     14       POPC     P        PL       1.500000       30.9740           0
      1885 MEMB     14       POPC     O13      O2L     -0.780000       15.9994           0
      1886 MEMB     14       POPC     O14      O2L     -0.780000       15.9994           0
      1887 MEMB     14       POPC     O12      OSLP    -0.570000       15.9994           0
      1888 MEMB     14       POPC     O11      OSLP    -0.570000       15.9994           0
      1889 MEMB     14       POPC     C1       CTL2    -0.800000E-01   12.0110           0
      1890 MEMB     14       POPC     HA       HAL2     0.900000E-01   1.00800           0
      1891 MEMB     14       POPC     HB       HAL2     0.900000E-01   1.00800           0
      1892 MEMB     14       POPC     C2       CTL1     0.170000       12.0110           0
      1893 MEMB     14       POPC     HS       HAL1     0.900000E-01   1.00800           0
      1894 MEMB     14       POPC     O21      OSL     -0.490000       15.9994           0
      1895 MEMB     14       POPC     C21      CL       0.900000       12.0110           0
      1896 MEMB     14       POPC     O22      OBL     -0.630000       15.9994           0
      1897 MEMB     14       POPC     C22      CTL2    -0.220000       12.0110           0
      1898 MEMB     14       POPC     H2R      HAL2     0.900000E-01   1.00800           0
      1899 MEMB     14       POPC     H2S      HAL2     0.900000E-01   1.00800           0
      1900 MEMB     14       POPC     C3       CTL2     0.800000E-01   12.0110           0
      1901 MEMB     14       POPC     HX       HAL2     0.900000E-01   1.00800           0
      1902 MEMB     14       POPC     HY       HAL2     0.900000E-01   1.00800           0
      1903 MEMB     14       POPC     O31      OSL     -0.490000       15.9994           0
      1904 MEMB     14       POPC     C31      CL       0.900000       12.0110           0
      1905 MEMB     14       POPC     O32      OBL     -0.630000       15.9994           0
      1906 MEMB     14       POPC     C32      CTL2    -0.220000       12.0110           0
      1907 MEMB     14       POPC     H2X      HAL2     0.900000E-01   1.00800           0
      1908 MEMB     14       POPC     H2Y      HAL2     0.900000E-01   1.00800           0
      1909 MEMB     14       POPC     C23      CTL2    -0.180000       12.0110           0
      1910 MEMB     14       POPC     H3R      HAL2     0.900000E-01   1.00800           0
      1911 MEMB     14       POPC     H3S      HAL2     0.900000E-01   1.00800           0
      1912 MEMB     14       POPC     C24      CTL2    -0.180000       12.0110           0
      1913 MEMB     14       POPC     H4R      HAL2     0.900000E-01   1.00800           0
      1914 MEMB     14       POPC     H4S      HAL2     0.900000E-01   1.00800           0
      1915 MEMB     14       POPC     C25      CTL2    -0.180000       12.0110           0
      1916 MEMB     14       POPC     H5R      HAL2     0.900000E-01   1.00800           0
      1917 MEMB     14       POPC     H5S      HAL2     0.900000E-01   1.00800           0
      1918 MEMB     14       POPC     C26      CTL2    -0.180000       12.0110           0
      1919 MEMB     14       POPC     H6R      HAL2     0.900000E-01   1.00800           0
      1920 MEMB     14       POPC     H6S      HAL2     0.900000E-01   1.00800           0
      1921 MEMB     14       POPC     C27      CTL2    -0.180000       12.0110           0
      1922 MEMB     14       POPC     H7R      HAL2     0.900000E-01   1.00800           0
      1923 MEMB     14       POPC     H7S      HAL2     0.900000E-01   1.00800           0
      1924 MEMB     14       POPC     C28      CTL2    -0.180000       12.0110           0
      1925 MEMB     14       POPC     H8R      HAL2     0.900000E-01   1.00800           0
      1926 MEMB     14       POPC     H8S      HAL2     0.900000E-01   1.00800           0
      1927 MEMB     14       POPC     C29      CEL1    -0.150000       12.0110           0
      1928 MEMB     14       POPC     H91      HEL1     0.150000       1.00800           0
      1929 MEMB     14       POPC     C210     CEL1    -0.150000       12.0110           0
      1930 MEMB     14       POPC     H101     HEL1     0.150000       1.00800           0
      1931 MEMB     14       POPC     C211     CTL2    -0.180000       12.0110           0
      1932 MEMB     14       POPC     H11R     HAL2     0.900000E-01   1.00800           0
      1933 MEMB     14       POPC     H11S     HAL2     0.900000E-01   1.00800           0
      1934 MEMB     14       POPC     C212     CTL2    -0.180000       12.0110           0
      1935 MEMB     14       POPC     H12R     HAL2     0.900000E-01   1.00800           0
      1936 MEMB     14       POPC     H12S     HAL2     0.900000E-01   1.00800           0
      1937 MEMB     14       POPC     C213     CTL2    -0.180000       12.0110           0
      1938 MEMB     14       POPC     H13R     HAL2     0.900000E-01   1.00800           0
      1939 MEMB     14       POPC     H13S     HAL2     0.900000E-01   1.00800           0
      1940 MEMB     14       POPC     C214     CTL2    -0.180000       12.0110           0
      1941 MEMB     14       POPC     H14R     HAL2     0.900000E-01   1.00800           0
      1942 MEMB     14       POPC     H14S     HAL2     0.900000E-01   1.00800           0
      1943 MEMB     14       POPC     C215     CTL2    -0.180000       12.0110           0
      1944 MEMB     14       POPC     H15R     HAL2     0.900000E-01   1.00800           0
      1945 MEMB     14       POPC     H15S     HAL2     0.900000E-01   1.00800           0
      1946 MEMB     14       POPC     C216     CTL2    -0.180000       12.0110           0
      1947 MEMB     14       POPC     H16R     HAL2     0.900000E-01   1.00800           0
      1948 MEMB     14       POPC     H16S     HAL2     0.900000E-01   1.00800           0
      1949 MEMB     14       POPC     C217     CTL2    -0.180000       12.0110           0
      1950 MEMB     14       POPC     H17R     HAL2     0.900000E-01   1.00800           0
      1951 MEMB     14       POPC     H17S     HAL2     0.900000E-01   1.00800           0
      1952 MEMB     14       POPC     C218     CTL3    -0.270000       12.0110           0
      1953 MEMB     14       POPC     H18R     HAL3     0.900000E-01   1.00800           0
      1954 MEMB     14       POPC     H18S     HAL3     0.900000E-01   1.00800           0
      1955 MEMB     14       POPC     H18T     HAL3     0.900000E-01   1.00800           0
      1956 MEMB     14       POPC     C33      CTL2    -0.180000       12.0110           0
      1957 MEMB     14       POPC     H3X      HAL2     0.900000E-01   1.00800           0
      1958 MEMB     14       POPC     H3Y      HAL2     0.900000E-01   1.00800           0
      1959 MEMB     14       POPC     C34      CTL2    -0.180000       12.0110           0
      1960 MEMB     14       POPC     H4X      HAL2     0.900000E-01   1.00800           0
      1961 MEMB     14       POPC     H4Y      HAL2     0.900000E-01   1.00800           0
      1962 MEMB     14       POPC     C35      CTL2    -0.180000       12.0110           0
      1963 MEMB     14       POPC     H5X      HAL2     0.900000E-01   1.00800           0
      1964 MEMB     14       POPC     H5Y      HAL2     0.900000E-01   1.00800           0
      1965 MEMB     14       POPC     C36      CTL2    -0.180000       12.0110           0
      1966 MEMB     14       POPC     H6X      HAL2     0.900000E-01   1.00800           0
      1967 MEMB     14       POPC     H6Y      HAL2     0.900000E-01   1.00800           0
      1968 MEMB     14       POPC     C37      CTL2    -0.180000       12.0110           0
      1969 MEMB     14       POPC     H7X      HAL2     0.900000E-01   1.00800           0
      1970 MEMB     14       POPC     H7Y      HAL2     0.900000E-01   1.00800           0
      1971 MEMB     14       POPC     C38      CTL2    -0.180000       12.0110           0
      1972 MEMB     14       POPC     H8X      HAL2     0.900000E-01   1.00800           0
      1973 MEMB     14       POPC     H8Y      HAL2     0.900000E-01   1.00800           0
      1974 MEMB     14       POPC     C39      CTL2    -0.180000       12.0110           0
      1975 MEMB     14       POPC     H9X      HAL2     0.900000E-01   1.00800           0
      1976 MEMB     14       POPC     H9Y      HAL2     0.900000E-01   1.00800           0
      1977 MEMB     14       POPC     C310     CTL2    -0.180000       12.0110           0
      1978 MEMB     14       POPC     H10X     HAL2     0.900000E-01   1.00800           0
      1979 MEMB     14       POPC     H10Y     HAL2     0.900000E-01   1.00800           0
      1980 MEMB     14       POPC     C311     CTL2    -0.180000       12.0110           0
      1981 MEMB     14       POPC     H11X     HAL2     0.900000E-01   1.00800           0
      1982 MEMB     14       POPC     H11Y     HAL2     0.900000E-01   1.00800           0
      1983 MEMB     14       POPC     C312     CTL2    -0.180000       12.0110           0
      1984 MEMB     14       POPC     H12X     HAL2     0.900000E-01   1.00800           0
      1985 MEMB     14       POPC     H12Y     HAL2     0.900000E-01   1.00800           0
      1986 MEMB     14       POPC     C313     CTL2    -0.180000       12.0110           0
      1987 MEMB     14       POPC     H13X     HAL2     0.900000E-01   1.00800           0
      1988 MEMB     14       POPC     H13Y     HAL2     0.900000E-01   1.00800           0
      1989 MEMB     14       POPC     C314     CTL2    -0.180000       12.0110           0
      1990 MEMB     14       POPC     H14X     HAL2     0.900000E-01   1.00800           0
      1991 MEMB     14       POPC     H14Y     HAL2     0.900000E-01   1.00800           0
      1992 MEMB     14       POPC     C315     CTL2    -0.180000       12.0110           0
      1993 MEMB     14       POPC     H15X     HAL2     0.900000E-01   1.00800           0
      1994 MEMB     14       POPC     H15Y     HAL2     0.900000E-01   1.00800           0
      1995 MEMB     14       POPC     C316     CTL3    -0.270000       12.0110           0
      1996 MEMB     14       POPC     H16X     HAL3     0.900000E-01   1.00800           0
      1997 MEMB     14       POPC     H16Y     HAL3     0.900000E-01   1.00800           0
      1998 MEMB     14       POPC     H16Z     HAL3     0.900000E-01   1.00800           0
      1999 MEMB     15       POPC     N        NTL     -0.600000       14.0070           0
      2000 MEMB     15       POPC     C12      CTL2    -0.100000       12.0110           0
      2001 MEMB     15       POPC     H12A     HL       0.250000       1.00800           0
      2002 MEMB     15       POPC     H12B     HL       0.250000       1.00800           0
      2003 MEMB     15       POPC     C13      CTL5    -0.350000       12.0110           0
      2004 MEMB     15       POPC     H13A     HL       0.250000       1.00800           0
      2005 MEMB     15       POPC     H13B     HL       0.250000       1.00800           0
      2006 MEMB     15       POPC     H13C     HL       0.250000       1.00800           0
      2007 MEMB     15       POPC     C14      CTL5    -0.350000       12.0110           0
      2008 MEMB     15       POPC     H14A     HL       0.250000       1.00800           0
      2009 MEMB     15       POPC     H14B     HL       0.250000       1.00800           0
      2010 MEMB     15       POPC     H14C     HL       0.250000       1.00800           0
      2011 MEMB     15       POPC     C15      CTL5    -0.350000       12.0110           0
      2012 MEMB     15       POPC     H15A     HL       0.250000       1.00800           0
      2013 MEMB     15       POPC     H15B     HL       0.250000       1.00800           0
      2014 MEMB     15       POPC     H15C     HL       0.250000       1.00800           0
      2015 MEMB     15       POPC     C11      CTL2    -0.800000E-01   12.0110           0
      2016 MEMB     15       POPC     H11A     HAL2     0.900000E-01   1.00800           0
      2017 MEMB     15       POPC     H11B     HAL2     0.900000E-01   1.00800           0
      2018 MEMB     15       POPC     P        PL       1.500000       30.9740           0
      2019 MEMB     15       POPC     O13      O2L     -0.780000       15.9994           0
      2020 MEMB     15       POPC     O14      O2L     -0.780000       15.9994           0
      2021 MEMB     15       POPC     O12      OSLP    -0.570000       15.9994           0
      2022 MEMB     15       POPC     O11      OSLP    -0.570000       15.9994           0
      2023 MEMB     15       POPC     C1       CTL2    -0.800000E-01   12.0110           0
      2024 MEMB     15       POPC     HA       HAL2     0.900000E-01   1.00800           0
      2025 MEMB     15       POPC     HB       HAL2     0.900000E-01   1.00800           0
      2026 MEMB     15       POPC     C2       CTL1     0.170000       12.0110           0
      2027 MEMB     15       POPC     HS       HAL1     0.900000E-01   1.00800           0
      2028 MEMB     15       POPC     O21      OSL     -0.490000       15.9994           0
      2029 MEMB     15       POPC     C21      CL       0.900000       12.0110           0
      2030 MEMB     15       POPC     O22      OBL     -0.630000       15.9994           0
      2031 MEMB     15       POPC     C22      CTL2    -0.220000       12.0110           0
      2032 MEMB     15       POPC     H2R      HAL2     0.900000E-01   1.00800           0
      2033 MEMB     15       POPC     H2S      HAL2     0.900000E-01   1.00800           0
      2034 MEMB     15       POPC     C3       CTL2     0.800000E-01   12.0110           0
      2035 MEMB     15       POPC     HX       HAL2     0.900000E-01   1.00800           0
      2036 MEMB     15       POPC     HY       HAL2     0.900000E-01   1.00800           0
      2037 MEMB     15       POPC     O31      OSL     -0.490000       15.9994           0
      2038 MEMB     15       POPC     C31      CL       0.900000       12.0110           0
      2039 MEMB     15       POPC     O32      OBL     -0.630000       15.9994           0
      2040 MEMB     15       POPC     C32      CTL2    -0.220000       12.0110           0
      2041 MEMB     15       POPC     H2X      HAL2     0.900000E-01   1.00800           0
      2042 MEMB     15       POPC     H2Y      HAL2     0.900000E-01   1.00800           0
      2043 MEMB     15       POPC     C23      CTL2    -0.180000       12.0110           0
      2044 MEMB     15       POPC     H3R      HAL2     0.900000E-01   1.00800           0
      2045 MEMB     15       POPC     H3S      HAL2     0.900000E-01   1.00800           0
      2046 MEMB     15       POPC     C24      CTL2    -0.180000       12.0110           0
      2047 MEMB     15       POPC     H4R      HAL2     0.900000E-01   1.00800           0
      2048 MEMB     15       POPC     H4S      HAL2     0.900000E-01   1.00800           0
      2049 MEMB     15       POPC     C25      CTL2    -0.180000       12.0110           0
      2050 MEMB     15       POPC     H5R      HAL2     0.900000E-01   1.00800           0
      2051 MEMB     15       POPC     H5S      HAL2     0.900000E-01   1.00800           0
      2052 MEMB     15       POPC     C26      CTL2    -0.180000       12.0110           0
      2053 MEMB     15       POPC     H6R      HAL2     0.900000E-01   1.00800           0
      2054 MEMB     15       POPC     H6S      HAL2     0.900000E-01   1.00800           0
      2055 MEMB     15       POPC     C27      CTL2    -0.180000       12.0110           0
      2056 MEMB     15       POPC     H7R      HAL2     0.900000E-01   1.00800           0
      2057 MEMB     15       POPC     H7S      HAL2     0.900000E-01   1.00800           0
      2058 MEMB     15       POPC     C28      CTL2    -0.180000       12.0110           0
      2059 MEMB     15       POPC     H8R      HAL2     0.900000E-01   1.00800           0
      2060 MEMB     15       POPC     H8S      HAL2     0.900000E-01   1.00800           0
      2061 MEMB     15       POPC     C29      CEL1    -0.150000       12.0110           0
      2062 MEMB     15       POPC     H91      HEL1     0.150000       1.00800           0
      2063 MEMB     15       POPC     C210     CEL1    -0.150000       12.0110           0
      2064 MEMB     15       POPC     H101     HEL1     0.150000       1.00800           0
      2065 MEMB     15       POPC     C211     CTL2    -0.180000       12.0110           0
      2066 MEMB     15       POPC     H11R     HAL2     0.900000E-01   1.00800           0
      2067 MEMB     15       POPC     H11S     HAL2     0.900000E-01   1.00800           0
      2068 MEMB     15       POPC     C212     CTL2    -0.180000       12.0110           0
      2069 MEMB     15       POPC     H12R     HAL2     0.900000E-01   1.00800           0
      2070 MEMB     15       POPC     H12S     HAL2     0.900000E-01   1.00800           0
      2071 MEMB     15       POPC     C213     CTL2    -0.180000       12.0110           0
      2072 MEMB     15       POPC     H13R     HAL2     0.900000E-01   1.00800           0
      2073 MEMB     15       POPC     H13S     HAL2     0.900000E-01   1.00800           0
      2074 MEMB     15       POPC     C214     CTL2    -0.180000       12.0110           0
      2075 MEMB     15       POPC     H14R     HAL2     0.900000E-01   1.00800           0
      2076 MEMB     15       POPC     H14S     HAL2     0.900000E-01   1.00800           0
      2077 MEMB     15       POPC     C215     CTL2    -0.180000       12.0110           0
      2078 MEMB     15       POPC     H15R     HAL2     0.900000E-01   1.00800           0
      2079 MEMB     15       POPC     H15S     HAL2     0.900000E-01   1.00800           0
      2080 MEMB     15       POPC     C216     CTL2    -0.180000       12.0110           0
      2081 MEMB     15       POPC     H16R     HAL2     0.900000E-01   1.00800           0
      2082 MEMB     15       POPC     H16S     HAL2     0.900000E-01   1.00800           0
      2083 MEMB     15       POPC     C217     CTL2    -0.180000       12.0110           0
      2084 MEMB     15       POPC     H17R     HAL2     0.900000E-01   1.00800           0
      2085 MEMB     15       POPC     H17S     HAL2     0.900000E-01   1.00800           0
      2086 MEMB     15       POPC     C218     CTL3    -0.270000       12.0110           0
      2087 MEMB     15       POPC     H18R     HAL3     0.900000E-01   1.00800           0
      2088 MEMB     15       POPC     H18S     HAL3     0.900000E-01   1.00800           0
      2089 MEMB     15       POPC     H18T     HAL3     0.900000E-01   1.00800           0
      2090 MEMB     15       POPC     C33      CTL2    -0.180000       12.0110           0
      2091 MEMB     15       POPC     H3X      HAL2     0.900000E-01   1.00800           0
      2092 MEMB     15       POPC     H3Y      HAL2     0.900000E-01   1.00800           0
      2093 MEMB     15       POPC     C34      CTL2    -0.180000       12.0110           0
      2094 MEMB     15       POPC     H4X      HAL2     0.900000E-01   1.00800           0
      2095 MEMB     15       POPC     H4Y      HAL2     0.900000E-01   1.00800           0
      2096 MEMB     15       POPC     C35      CTL2    -0.180000       12.0110           0
      2097 MEMB     15       POPC     H5X      HAL2     0.900000E-01   1.00800           0
      2098 MEMB     15       POPC     H5Y      HAL2     0.900000E-01   1.00800           0
      2099 MEMB     15       POPC     C36      CTL2    -0.180000       12.0110           0
      2100 MEMB     15       POPC     H6X      HAL2     0.900000E-01   1.00800           0
      2101 MEMB     15       POPC     H6Y      HAL2     0.900000E-01   1.00800           0
      2102 MEMB     15       POPC     C37      CTL2    -0.180000       12.0110           0
      2103 MEMB     15       POPC     H7X      HAL2     0.900000E-01   1.00800           0
      2104 MEMB     15       POPC     H7Y      HAL2     0.900000E-01   1.00800           0
      2105 MEMB     15       POPC     C38      CTL2    -0.180000       12.0110           0
      2106 MEMB     15       POPC     H8X      HAL2     0.900000E-01   1.00800           0
      2107 MEMB     15       POPC     H8Y      HAL2     0.900000E-01   1.00800           0
      2108 MEMB     15       POPC     C39      CTL2    -0.180000       12.0110           0
      2109 MEMB     15       POPC     H9X      HAL2     0.900000E-01   1.00800           0
      2110 MEMB     15       POPC     H9Y      HAL2     0.900000E-01   1.00800           0
      2111 MEMB     15       POPC     C310     CTL2    -0.180000       12.0110           0
      2112 MEMB     15       POPC     H10X     HAL2     0.900000E-01   1.00800           0
      2113 MEMB     15       POPC     H10Y     HAL2     0.900000E-01   1.00800           0
      2114 MEMB     15       POPC     C311     CTL2    -0.180000       12.0110           0
      2115 MEMB     15       POPC     H11X     HAL2     0.900000E-01   1.00800           0
      2116 MEMB     15       POPC     H11Y     HAL2     0.900000E-01   1.00800           0
      2117 MEMB     15       POPC     C312     CTL2    -0.180000       12.0110           0
      2118 MEMB     15       POPC     H12X     HAL2     0.900000E-01   1.00800           0
      2119 MEMB     15       POPC     H12Y     HAL2     0.900000E-01   1.00800           0
      2120 MEMB     15       POPC     C313     CTL2    -0.180000       12.0110           0
      2121 MEMB     15       POPC     H13X     HAL2     0.900000E-01   1.00800           0
      2122 MEMB     15       POPC     H13Y     HAL2     0.900000E-01   1.00800           0
      2123 MEMB     15       POPC     C314     CTL2    -0.180000       12.0110           0
      2124 MEMB     15       POPC     H14X     HAL2     0.900000E-01   1.00800           0
      2125 MEMB     15       POPC     H14Y     HAL2     0.900000E-01   1.00800           0
      2126 MEMB     15       POPC     C315     CTL2    -0.180000       12.0110           0
      2127 MEMB     15       POPC     H15X     HAL2     0.900000E-01   1.00800           0
      2128 MEMB     15       POPC     H15Y     HAL2     0.900000E-01   1.00800           0
      2129 MEMB     15       POPC     C316     CTL3    -0.270000       12.0110           0
      2130 MEMB     15       POPC     H16X     HAL3     0.900000E-01   1.00800           0
      2131 MEMB     15       POPC     H16Y     HAL3     0.900000E-01   1.00800           0
      2132 MEMB     15       POPC     H16Z     HAL3     0.900000E-01   1.00800           0
      2133 MEMB     16       POPS     N        NH3L    -0.300000       14.0070           0
      2134 MEMB     16       POPS     HN1      HCL      0.330000       1.00800           0
      2135 MEMB     16       POPS     HN2      HCL      0.330000       1.00800           0
      2136 MEMB     16       POPS     HN3      HCL      0.330000       1.00800           0
      2137 MEMB     16       POPS     C12      CTL1     0.210000       12.0110           0
      2138 MEMB     16       POPS     H12A     HBL      0.100000       1.00800           0
      2139 MEMB     16       POPS     C13      CCL      0.340000       12.0110           0
      2140 MEMB     16       POPS     O13A     OCL     -0.670000       15.9994           0
      2141 MEMB     16       POPS     O13B     OCL     -0.670000       15.9994           0
      2142 MEMB     16       POPS     C11      CTL2    -0.800000E-01   12.0110           0
      2143 MEMB     16       POPS     H11A     HAL2     0.900000E-01   1.00800           0
      2144 MEMB     16       POPS     H11B     HAL2     0.900000E-01   1.00800           0
      2145 MEMB     16       POPS     P        PL       1.500000       30.9740           0
      2146 MEMB     16       POPS     O13      O2L     -0.780000       15.9994           0
      2147 MEMB     16       POPS     O14      O2L     -0.780000       15.9994           0
      2148 MEMB     16       POPS     O12      OSLP    -0.570000       15.9994           0
      2149 MEMB     16       POPS     O11      OSLP    -0.570000       15.9994           0
      2150 MEMB     16       POPS     C1       CTL2    -0.800000E-01   12.0110           0
      2151 MEMB     16       POPS     HA       HAL2     0.900000E-01   1.00800           0
      2152 MEMB     16       POPS     HB       HAL2     0.900000E-01   1.00800           0
      2153 MEMB     16       POPS     C2       CTL1     0.170000       12.0110           0
      2154 MEMB     16       POPS     HS       HAL1     0.900000E-01   1.00800           0
      2155 MEMB     16       POPS     O21      OSL     -0.490000       15.9994           0
      2156 MEMB     16       POPS     C21      CL       0.900000       12.0110           0
      2157 MEMB     16       POPS     O22      OBL     -0.630000       15.9994           0
      2158 MEMB     16       POPS     C22      CTL2    -0.220000       12.0110           0
      2159 MEMB     16       POPS     H2R      HAL2     0.900000E-01   1.00800           0
      2160 MEMB     16       POPS     H2S      HAL2     0.900000E-01   1.00800           0
      2161 MEMB     16       POPS     C3       CTL2     0.800000E-01   12.0110           0
      2162 MEMB     16       POPS     HX       HAL2     0.900000E-01   1.00800           0
      2163 MEMB     16       POPS     HY       HAL2     0.900000E-01   1.00800           0
      2164 MEMB     16       POPS     O31      OSL     -0.490000       15.9994           0
      2165 MEMB     16       POPS     C31      CL       0.900000       12.0110           0
      2166 MEMB     16       POPS     O32      OBL     -0.630000       15.9994           0
      2167 MEMB     16       POPS     C32      CTL2    -0.220000       12.0110           0
      2168 MEMB     16       POPS     H2X      HAL2     0.900000E-01   1.00800           0
      2169 MEMB     16       POPS     H2Y      HAL2     0.900000E-01   1.00800           0
      2170 MEMB     16       POPS     C23      CTL2    -0.180000       12.0110           0
      2171 MEMB     16       POPS     H3R      HAL2     0.900000E-01   1.00800           0
      2172 MEMB     16       POPS     H3S      HAL2     0.900000E-01   1.00800           0
      2173 MEMB     16       POPS     C24      CTL2    -0.180000       12.0110           0
      2174 MEMB     16       POPS     H4R      HAL2     0.900000E-01   1.00800           0
      2175 MEMB     16       POPS     H4S      HAL2     0.900000E-01   1.00800           0
      2176 MEMB     16       POPS     C25      CTL2    -0.180000       12.0110           0
      2177 MEMB     16       POPS     H5R      HAL2     0.900000E-01   1.00800           0
      2178 MEMB     16       POPS     H5S      HAL2     0.900000E-01   1.00800           0
      2179 MEMB     16       POPS     C26      CTL2    -0.180000       12.0110           0
      2180 MEMB     16       POPS     H6R      HAL2     0.900000E-01   1.00800           0
      2181 MEMB     16       POPS     H6S      HAL2     0.900000E-01   1.00800           0
      2182 MEMB     16       POPS     C27      CTL2    -0.180000       12.0110           0
      2183 MEMB     16       POPS     H7R      HAL2     0.900000E-01   1.00800           0
      2184 MEMB     16       POPS     H7S      HAL2     0.900000E-01   1.00800           0
      2185 MEMB     16       POPS     C28      CTL2    -0.180000       12.0110           0
      2186 MEMB     16       POPS     H8R      HAL2     0.900000E-01   1.00800           0
      2187 MEMB     16       POPS     H8S      HAL2     0.900000E-01   1.00800           0
      2188 MEMB     16       POPS     C29      CEL1    -0.150000       12.0110           0
      2189 MEMB     16       POPS     H91      HEL1     0.150000       1.00800           0
      2190 MEMB     16       POPS     C210     CEL1    -0.150000       12.0110           0
      2191 MEMB     16       POPS     H101     HEL1     0.150000       1.00800           0
      2192 MEMB     16       POPS     C211     CTL2    -0.180000       12.0110           0
      2193 MEMB     16       POPS     H11R     HAL2     0.900000E-01   1.00800           0
      2194 MEMB     16       POPS     H11S     HAL2     0.900000E-01   1.00800           0
      2195 MEMB     16       POPS     C212     CTL2    -0.180000       12.0110           0
      2196 MEMB     16       POPS     H12R     HAL2     0.900000E-01   1.00800           0
      2197 MEMB     16       POPS     H12S     HAL2     0.900000E-01   1.00800           0
      2198 MEMB     16       POPS     C213     CTL2    -0.180000       12.0110           0
      2199 MEMB     16       POPS     H13R     HAL2     0.900000E-01   1.00800           0
      2200 MEMB     16       POPS     H13S     HAL2     0.900000E-01   1.00800           0
      2201 MEMB     16       POPS     C214     CTL2    -0.180000       12.0110           0
      2202 MEMB     16       POPS     H14R     HAL2     0.900000E-01   1.00800           0
      2203 MEMB     16       POPS     H14S     HAL2     0.900000E-01   1.00800           0
      2204 MEMB     16       POPS     C215     CTL2    -0.180000       12.0110           0
      2205 MEMB     16       POPS     H15R     HAL2     0.900000E-01   1.00800           0
      2206 MEMB     16       POPS     H15S     HAL2     0.900000E-01   1.00800           0
      2207 MEMB     16       POPS     C216     CTL2    -0.180000       12.0110           0
      2208 MEMB     16       POPS     H16R     HAL2     0.900000E-01   1.00800           0
      2209 MEMB     16       POPS     H16S     HAL2     0.900000E-01   1.00800           0
      2210 MEMB     16       POPS     C217     CTL2    -0.180000       12.0110           0
      2211 MEMB     16       POPS     H17R     HAL2     0.900000E-01   1.00800           0
      2212 MEMB     16       POPS     H17S     HAL2     0.900000E-01   1.00800           0
      2213 MEMB     16       POPS     C218     CTL3    -0.270000       12.0110           0
      2214 MEMB     16       POPS     H18R     HAL3     0.900000E-01   1.00800           0
      2215 MEMB     16       POPS     H18S     HAL3     0.900000E-01   1.00800           0
      2216 MEMB     16       POPS     H18T     HAL3     0.900000E-01   1.00800           0
      2217 MEMB     16       POPS     C33      CTL2    -0.180000       12.0110           0
      2218 MEMB     16       POPS     H3X      HAL2     0.900000E-01   1.00800           0
      2219 MEMB     16       POPS     H3Y      HAL2     0.900000E-01   1.00800           0
      2220 MEMB     16       POPS     C34      CTL2    -0.180000       12.0110           0
      2221 MEMB     16       POPS     H4X      HAL2     0.900000E-01   1.00800           0
      2222 MEMB     16       POPS     H4Y      HAL2     0.900000E-01   1.00800           0
      2223 MEMB     16       POPS     C35      CTL2    -0.180000       12.0110           0
      2224 MEMB     16       POPS     H5X      HAL2     0.900000E-01   1.00800           0
      2225 MEMB     16       POPS     H5Y      HAL2     0.900000E-01   1.00800           0
      2226 MEMB     16       POPS     C36      CTL2    -0.180000       12.0110           0
      2227 MEMB     16       POPS     H6X      HAL2     0.900000E-01   1.00800           0
      2228 MEMB     16       POPS     H6Y      HAL2     0.900000E-01   1.00800           0
      2229 MEMB     16       POPS     C37      CTL2    -0.180000       12.0110           0
      2230 MEMB     16       POPS     H7X      HAL2     0.900000E-01   1.00800           0
      2231 MEMB     16       POPS     H7Y      HAL2     0.900000E-01   1.00800           0
      2232 MEMB     16       POPS     C38      CTL2    -0.180000       12.0110           0
      2233 MEMB     16       POPS     H8X      HAL2     0.900000E-01   1.00800           0
      2234 MEMB     16       POPS     H8Y      HAL2     0.900000E-01   1.00800           0
      2235 MEMB     16       POPS     C39      CTL2    -0.180000       12.0110           0
      2236 MEMB     16       POPS     H9X      HAL2     0.900000E-01   1.00800           0
      2237 MEMB     16       POPS     H9Y      HAL2     0.900000E-01   1.00800           0
      2238 MEMB     16       POPS     C310     CTL2    -0.180000       12.0110           0
      2239 MEMB     16       POPS     H10X     HAL2     0.900000E-01   1.00800           0
      2240 MEMB     16       POPS     H10Y     HAL2     0.900000E-01   1.00800           0
      2241 MEMB     16       POPS     C311     CTL2    -0.180000       12.0110           0
      2242 MEMB     16       POPS     H11X     HAL2     0.900000E-01   1.00800           0
      2243 MEMB     16       POPS     H11Y     HAL2     0.900000E-01   1.00800           0
      2244 MEMB     16       POPS     C312     CTL2    -0.180000       12.0110           0
      2245 MEMB     16       POPS     H12X     HAL2     0.900000E-01   1.00800           0
      2246 MEMB     16       POPS     H12Y     HAL2     0.900000E-01   1.00800           0
      2247 MEMB     16       POPS     C313     CTL2    -0.180000       12.0110           0
      2248 MEMB     16       POPS     H13X     HAL2     0.900000E-01   1.00800           0
      2249 MEMB     16       POPS     H13Y     HAL2     0.900000E-01   1.00800           0
      2250 MEMB     16       POPS     C314     CTL2    -0.180000       12.0110           0
      2251 MEMB     16       POPS     H14X     HAL2     0.900000E-01   1.00800           0
      2252 MEMB     16       POPS     H14Y     HAL2     0.900000E-01   1.00800           0
      2253 MEMB     16       POPS     C315     CTL2    -0.180000       12.0110           0
      2254 MEMB     16       POPS     H15X     HAL2     0.900000E-01   1.00800           0
      2255 MEMB     16       POPS     H15Y     HAL2     0.900000E-01   1.00800           0
      2256 MEMB     16       POPS     C316     CTL3    -0.270000       12.0110           0
      2257 MEMB     16       POPS     H16X     HAL3     0.900000E-01   1.00800           0
      2258 MEMB     16       POPS     H16Y     HAL3     0.900000E-01   1.00800           0
      2259 MEMB     16       POPS     H16Z     HAL3     0.900000E-01   1.00800           0
      2260 MEMB     17       POPS     N        NH3L    -0.300000       14.0070           0
      2261 MEMB     17       POPS     HN1      HCL      0.330000       1.00800           0
      2262 MEMB     17       POPS     HN2      HCL      0.330000       1.00800           0
      2263 MEMB     17       POPS     HN3      HCL      0.330000       1.00800           0
      2264 MEMB     17       POPS     C12      CTL1     0.210000       12.0110           0
      2265 MEMB     17       POPS     H12A     HBL      0.100000       1.00800           0
      2266 MEMB     17       POPS     C13      CCL      0.340000       12.0110           0
      2267 MEMB     17       POPS     O13A     OCL     -0.670000       15.9994           0
      2268 MEMB     17       POPS     O13B     OCL     -0.670000       15.9994           0
      2269 MEMB     17       POPS     C11      CTL2    -0.800000E-01   12.0110           0
      2270 MEMB     17       POPS     H11A     HAL2     0.900000E-01   1.00800           0
      2271 MEMB     17       POPS     H11B     HAL2     0.900000E-01   1.00800           0
      2272 MEMB     17       POPS     P        PL       1.500000       30.9740           0
      2273 MEMB     17       POPS     O13      O2L     -0.780000       15.9994           0
      2274 MEMB     17       POPS     O14      O2L     -0.780000       15.9994           0
      2275 MEMB     17       POPS     O12      OSLP    -0.570000       15.9994           0
      2276 MEMB     17       POPS     O11      OSLP    -0.570000       15.9994           0
      2277 MEMB     17       POPS     C1       CTL2    -0.800000E-01   12.0110           0
      2278 MEMB     17       POPS     HA       HAL2     0.900000E-01   1.00800           0
      2279 MEMB     17       POPS     HB       HAL2     0.900000E-01   1.00800           0
      2280 MEMB     17       POPS     C2       CTL1     0.170000       12.0110           0
      2281 MEMB     17       POPS     HS       HAL1     0.900000E-01   1.00800           0
      2282 MEMB     17       POPS     O21      OSL     -0.490000       15.9994           0
      2283 MEMB     17       POPS     C21      CL       0.900000       12.0110           0
      2284 MEMB     17       POPS     O22      OBL     -0.630000       15.9994           0
      2285 MEMB     17       POPS     C22      CTL2    -0.220000       12.0110           0
      2286 MEMB     17       POPS     H2R      HAL2     0.900000E-01   1.00800           0
      2287 MEMB     17       POPS     H2S      HAL2     0.900000E-01   1.00800           0
      2288 MEMB     17       POPS     C3       CTL2     0.800000E-01   12.0110           0
      2289 MEMB     17       POPS     HX       HAL2     0.900000E-01   1.00800           0
      2290 MEMB     17       POPS     HY       HAL2     0.900000E-01   1.00800           0
      2291 MEMB     17       POPS     O31      OSL     -0.490000       15.9994           0
      2292 MEMB     17       POPS     C31      CL       0.900000       12.0110           0
      2293 MEMB     17       POPS     O32      OBL     -0.630000       15.9994           0
      2294 MEMB     17       POPS     C32      CTL2    -0.220000       12.0110           0
      2295 MEMB     17       POPS     H2X      HAL2     0.900000E-01   1.00800           0
      2296 MEMB     17       POPS     H2Y      HAL2     0.900000E-01   1.00800           0
      2297 MEMB     17       POPS     C23      CTL2    -0.180000       12.0110           0
      2298 MEMB     17       POPS     H3R      HAL2     0.900000E-01   1.00800           0
      2299 MEMB     17       POPS     H3S      HAL2     0.900000E-01   1.00800           0
      2300 MEMB     17       POPS     C24      CTL2    -0.180000       12.0110           0
      2301 MEMB     17       POPS     H4R      HAL2     0.900000E-01   1.00800           0
      2302 MEMB     17       POPS     H4S      HAL2     0.900000E-01   1.00800           0
      2303 MEMB     17       POPS     C25      CTL2    -0.180000       12.0110           0
      2304 MEMB     17       POPS     H5R      HAL2     0.900000E-01   1.00800           0
      2305 MEMB     17       POPS     H5S      HAL2     0.900000E-01   1.00800           0
      2306 MEMB     17       POPS     C26      CTL2    -0.180000       12.0110           0
      2307 MEMB     17       POPS     H6R      HAL2     0.900000E-01   1.00800           0
      2308 MEMB     17       POPS     H6S      HAL2     0.900000E-01   1.00800           0
      2309 MEMB     17       POPS     C27      CTL2    -0.180000       12.0110           0
      2310 MEMB     17       POPS     H7R      HAL2     0.900000E-01   1.00800           0
      2311 MEMB     17       POPS     H7S      HAL2     0.900000E-01   1.00800           0
      2312 MEMB     17       POPS     C28      CTL2    -0.180000       12.0110           0
      2313 MEMB     17       POPS     H8R      HAL2     0.900000E-01   1.00800           0
      2314 MEMB     17       POPS     H8S      HAL2     0.900000E-01   1.00800           0
      2315 MEMB     17       POPS     C29      CEL1    -0.150000       12.0110           0
      2316 MEMB     17       POPS     H91      HEL1     0.150000       1.00800           0
      2317 MEMB     17       POPS     C210     CEL1    -0.150000       12.0110           0
      2318 MEMB     17       POPS     H101     HEL1     0.150000       1.00800           0
      2319 MEMB     17       POPS     C211     CTL2    -0.180000       12.0110           0
      2320 MEMB     17       POPS     H11R     HAL2     0.900000E-01   1.00800           0
      2321 MEMB     17       POPS     H11S     HAL2     0.900000E-01   1.00800           0
      2322 MEMB     17       POPS     C212     CTL2    -0.180000       12.0110           0
      2323 MEMB     17       POPS     H12R     HAL2     0.900000E-01   1.00800           0
      2324 MEMB     17       POPS     H12S     HAL2     0.900000E-01   1.00800           0
      2325 MEMB     17       POPS     C213     CTL2    -0.180000       12.0110           0
      2326 MEMB     17       POPS     H13R     HAL2     0.900000E-01   1.00800           0
      2327 MEMB     17       POPS     H13S     HAL2     0.900000E-01   1.00800           0
      2328 MEMB     17       POPS     C214     CTL2    -0.180000       12.0110           0
      2329 MEMB     17       POPS     H14R     HAL2     0.900000E-01   1.00800           0
      2330 MEMB     17       POPS     H14S     HAL2     0.900000E-01   1.00800           0
      2331 MEMB     17       POPS     C215     CTL2    -0.180000       12.0110           0
      2332 MEMB     17       POPS     H15R     HAL2     0.900000E-01   1.00800           0
      2333 MEMB     17       POPS     H15S     HAL2     0.900000E-01   1.00800           0
      2334 MEMB     17       POPS     C216     CTL2    -0.180000       12.0110           0
      2335 MEMB     17       POPS     H16R     HAL2     0.900000E-01   1.00800           0
      2336 MEMB     17       POPS     H16S     HAL2     0.900000E-01   1.00800           0
      2337 MEMB     17       POPS     C217     CTL2    -0.180000       12.0110           0
      2338 MEMB     17       POPS     H17R     HAL2     0.900000E-01   1.00800           0
      2339 MEMB     17       POPS     H17S     HAL2     0.900000E-01   1.00800           0
      2340 MEMB     17       POPS     C218     CTL3    -0.270000       12.0110           0
      2341 MEMB     17       POPS     H18R     HAL3     0.900000E-01   1.00800           0
      2342 MEMB     17       POPS     H18S     HAL3     0.900000E-01   1.00800           0
      2343 MEMB     17       POPS     H18T     HAL3     0.900000E-01   1.00800           0
      2344 MEMB     17       POPS     C33      CTL2    -0.180000       12.0110           0
      2345 MEMB     17       POPS     H3X      HAL2     0.900000E-01   1.00800           0
      2346 MEMB     17       POPS     H3Y      HAL2     0.900000E-01   1.00800           0
      2347 MEMB     17       POPS     C34      CTL2    -0.180000       12.0110           0
      2348 MEMB     17       POPS     H4X      HAL2     0.900000E-01   1.00800           0
      2349 MEMB     17       POPS     H4Y      HAL2     0.900000E-01   1.00800           0
      2350 MEMB     17       POPS     C35      CTL2    -0.180000       12.0110           0
      2351 MEMB     17       POPS     H5X      HAL2     0.900000E-01   1.00800           0
      2352 MEMB     17       POPS     H5Y      HAL2     0.900000E-01   1.00800           0
      2353 MEMB     17       POPS     C36      CTL2    -0.180000       12.0110           0
      2354 MEMB     17       POPS     H6X      HAL2     0.900000E-01   1.00800           0
      2355 MEMB     17       POPS     H6Y      HAL2     0.900000E-01   1.00800           0
      2356 MEMB     17       POPS     C37      CTL2    -0.180000       12.0110           0
      2357 MEMB     17       POPS     H7X      HAL2     0.900000E-01   1.00800           0
      2358 MEMB     17       POPS     H7Y      HAL2     0.900000E-01   1.00800           0
      2359 MEMB     17       POPS     C38      CTL2    -0.180000       12.0110           0
      2360 MEMB     17       POPS     H8X      HAL2     0.900000E-01   1.00800           0
      2361 MEMB     17       POPS     H8Y      HAL2     0.900000E-01   1.00800           0
      2362 MEMB     17       POPS     C39      CTL2    -0.180000       12.0110           0
      2363 MEMB     17       POPS     H9X      HAL2     0.900000E-01   1.00800           0
      2364 MEMB     17       POPS     H9Y      HAL2     0.900000E-01   1.00800           0
      2365 MEMB     17       POPS     C310     CTL2    -0.180000       12.0110           0
      2366 MEMB     17       POPS     H10X     HAL2     0.900000E-01   1.00800           0
      2367 MEMB     17       POPS     H10Y     HAL2     0.900000E-01   1.00800           0
      2368 MEMB     17       POPS     C311     CTL2    -0.180000       12.0110           0
      2369 MEMB     17       POPS     H11X     HAL2     0.900000E-01   1.00800           0
      2370 MEMB     17       POPS     H11Y     HAL2     0.900000E-01   1.00800           0
      2371 MEMB     17       POPS     C312     CTL2    -0.180000       12.0110           0
      2372 MEMB     17       POPS     H12X     HAL2     0.900000E-01   1.00800           0
      2373 MEMB     17       POPS     H12Y     HAL2     0.900000E-01   1.00800           0
      2374 MEMB     17       POPS     C313     CTL2    -0.180000       12.0110           0
      2375 MEMB     17       POPS     H13X     HAL2     0.900000E-01   1.00800           0
      2376 MEMB     17       POPS     H13Y     HAL2     0.900000E-01   1.00800           0
      2377 MEMB     17       POPS     C314     CTL2    -0.180000       12.0110           0
      2378 MEMB     17       POPS     H14X     HAL2     0.900000E-01   1.00800           0
      2379 MEMB     17       POPS     H14Y     HAL2     0.900000E-01   1.00800           0
      2380 MEMB     17       POPS     C315     CTL2    -0.180000       12.0110           0
      2381 MEMB     17       POPS     H15X     HAL2     0.900000E-01   1.00800           0
      2382 MEMB     17       POPS     H15Y     HAL2     0.900000E-01   1.00800           0
      2383 MEMB     17       POPS     C316     CTL3    -0.270000       12.0110           0
      2384 MEMB     17       POPS     H16X     HAL3     0.900000E-01   1.00800           0
      2385 MEMB     17       POPS     H16Y     HAL3     0.900000E-01   1.00800           0
      2386 MEMB     17       POPS     H16Z     HAL3     0.900000E-01   1.00800           0
      2387 MEMB     18       POPC     N        NTL     -0.600000       14.0070           0
      2388 MEMB     18       POPC     C12      CTL2    -0.100000       12.0110           0
      2389 MEMB     18       POPC     H12A     HL       0.250000       1.00800           0
      2390 MEMB     18       POPC     H12B     HL       0.250000       1.00800           0
      2391 MEMB     18       POPC     C13      CTL5    -0.350000       12.0110           0
      2392 MEMB     18       POPC     H13A     HL       0.250000       1.00800           0
      2393 MEMB     18       POPC     H13B     HL       0.250000       1.00800           0
      2394 MEMB     18       POPC     H13C     HL       0.250000       1.00800           0
      2395 MEMB     18       POPC     C14      CTL5    -0.350000       12.0110           0
      2396 MEMB     18       POPC     H14A     HL       0.250000       1.00800           0
      2397 MEMB     18       POPC     H14B     HL       0.250000       1.00800           0
      2398 MEMB     18       POPC     H14C     HL       0.250000       1.00800           0
      2399 MEMB     18       POPC     C15      CTL5    -0.350000       12.0110           0
      2400 MEMB     18       POPC     H15A     HL       0.250000       1.00800           0
      2401 MEMB     18       POPC     H15B     HL       0.250000       1.00800           0
      2402 MEMB     18       POPC     H15C     HL       0.250000       1.00800           0
      2403 MEMB     18       POPC     C11      CTL2    -0.800000E-01   12.0110           0
      2404 MEMB     18       POPC     H11A     HAL2     0.900000E-01   1.00800           0
      2405 MEMB     18       POPC     H11B     HAL2     0.900000E-01   1.00800           0
      2406 MEMB     18       POPC     P        PL       1.500000       30.9740           0
      2407 MEMB     18       POPC     O13      O2L     -0.780000       15.9994           0
      2408 MEMB     18       POPC     O14      O2L     -0.780000       15.9994           0
      2409 MEMB     18       POPC     O12      OSLP    -0.570000       15.9994           0
      2410 MEMB     18       POPC     O11      OSLP    -0.570000       15.9994           0
      2411 MEMB     18       POPC     C1       CTL2    -0.800000E-01   12.0110           0
      2412 MEMB     18       POPC     HA       HAL2     0.900000E-01   1.00800           0
      2413 MEMB     18       POPC     HB       HAL2     0.900000E-01   1.00800           0
      2414 MEMB     18       POPC     C2       CTL1     0.170000       12.0110           0
      2415 MEMB     18       POPC     HS       HAL1     0.900000E-01   1.00800           0
      2416 MEMB     18       POPC     O21      OSL     -0.490000       15.9994           0
      2417 MEMB     18       POPC     C21      CL       0.900000       12.0110           0
      2418 MEMB     18       POPC     O22      OBL     -0.630000       15.9994           0
      2419 MEMB     18       POPC     C22      CTL2    -0.220000       12.0110           0
      2420 MEMB     18       POPC     H2R      HAL2     0.900000E-01   1.00800           0
      2421 MEMB     18       POPC     H2S      HAL2     0.900000E-01   1.00800           0
      2422 MEMB     18       POPC     C3       CTL2     0.800000E-01   12.0110           0
      2423 MEMB     18       POPC     HX       HAL2     0.900000E-01   1.00800           0
      2424 MEMB     18       POPC     HY       HAL2     0.900000E-01   1.00800           0
      2425 MEMB     18       POPC     O31      OSL     -0.490000       15.9994           0
      2426 MEMB     18       POPC     C31      CL       0.900000       12.0110           0
      2427 MEMB     18       POPC     O32      OBL     -0.630000       15.9994           0
      2428 MEMB     18       POPC     C32      CTL2    -0.220000       12.0110           0
      2429 MEMB     18       POPC     H2X      HAL2     0.900000E-01   1.00800           0
      2430 MEMB     18       POPC     H2Y      HAL2     0.900000E-01   1.00800           0
      2431 MEMB     18       POPC     C23      CTL2    -0.180000       12.0110           0
      2432 MEMB     18       POPC     H3R      HAL2     0.900000E-01   1.00800           0
      2433 MEMB     18       POPC     H3S      HAL2     0.900000E-01   1.00800           0
      2434 MEMB     18       POPC     C24      CTL2    -0.180000       12.0110           0
      2435 MEMB     18       POPC     H4R      HAL2     0.900000E-01   1.00800           0
      2436 MEMB     18       POPC     H4S      HAL2     0.900000E-01   1.00800           0
      2437 MEMB     18       POPC     C25      CTL2    -0.180000       12.0110           0
      2438 MEMB     18       POPC     H5R      HAL2     0.900000E-01   1.00800           0
      2439 MEMB     18       POPC     H5S      HAL2     0.900000E-01   1.00800           0
      2440 MEMB     18       POPC     C26      CTL2    -0.180000       12.0110           0
      2441 MEMB     18       POPC     H6R      HAL2     0.900000E-01   1.00800           0
      2442 MEMB     18       POPC     H6S      HAL2     0.900000E-01   1.00800           0
      2443 MEMB     18       POPC     C27      CTL2    -0.180000       12.0110           0
      2444 MEMB     18       POPC     H7R      HAL2     0.900000E-01   1.00800           0
      2445 MEMB     18       POPC     H7S      HAL2     0.900000E-01   1.00800           0
      2446 MEMB     18       POPC     C28      CTL2    -0.180000       12.0110           0
      2447 MEMB     18       POPC     H8R      HAL2     0.900000E-01   1.00800           0
      2448 MEMB     18       POPC     H8S      HAL2     0.900000E-01   1.00800           0
      2449 MEMB     18       POPC     C29      CEL1    -0.150000       12.0110           0
      2450 MEMB     18       POPC     H91      HEL1     0.150000       1.00800           0
      2451 MEMB     18       POPC     C210     CEL1    -0.150000       12.0110           0
      2452 MEMB     18       POPC     H101     HEL1     0.150000       1.00800           0
      2453 MEMB     18       POPC     C211     CTL2    -0.180000       12.0110           0
      2454 MEMB     18       POPC     H11R     HAL2     0.900000E-01   1.00800           0
      2455 MEMB     18       POPC     H11S     HAL2     0.900000E-01   1.00800           0
      2456 MEMB     18       POPC     C212     CTL2    -0.180000       12.0110           0
      2457 MEMB     18       POPC     H12R     HAL2     0.900000E-01   1.00800           0
      2458 MEMB     18       POPC     H12S     HAL2     0.900000E-01   1.00800           0
      2459 MEMB     18       POPC     C213     CTL2    -0.180000       12.0110           0
      2460 MEMB     18       POPC     H13R     HAL2     0.900000E-01   1.00800           0
      2461 MEMB     18       POPC     H13S     HAL2     0.900000E-01   1.00800           0
      2462 MEMB     18       POPC     C214     CTL2    -0.180000       12.0110           0
      2463 MEMB     18       POPC     H14R     HAL2     0.900000E-01   1.00800           0
      2464 MEMB     18       POPC     H14S     HAL2     0.900000E-01   1.00800           0
      2465 MEMB     18       POPC     C215     CTL2    -0.180000       12.0110           0
      2466 MEMB     18       POPC     H15R     HAL2     0.900000E-01   1.00800           0
      2467 MEMB     18       POPC     H15S     HAL2     0.900000E-01   1.00800           0
      2468 MEMB     18       POPC     C216     CTL2    -0.180000       12.0110           0
      2469 MEMB     18       POPC     H16R     HAL2     0.900000E-01   1.00800           0
      2470 MEMB     18       POPC     H16S     HAL2     0.900000E-01   1.00800           0
      2471 MEMB     18       POPC     C217     CTL2    -0.180000       12.0110           0
      2472 MEMB     18       POPC     H17R     HAL2     0.900000E-01   1.00800           0
      2473 MEMB     18       POPC     H17S     HAL2     0.900000E-01   1.00800           0
      2474 MEMB     18       POPC     C218     CTL3    -0.270000       12.0110           0
      2475 MEMB     18       POPC     H18R     HAL3     0.900000E-01   1.00800           0
      2476 MEMB     18       POPC     H18S     HAL3     0.900000E-01   1.00800           0
      2477 MEMB     18       POPC     H18T     HAL3     0.900000E-01   1.00800           0
      2478 MEMB     18       POPC     C33      CTL2    -0.180000       12.0110           0
      2479 MEMB     18       POPC     H3X      HAL2     0.900000E-01   1.00800           0
      2480 MEMB     18       POPC     H3Y      HAL2     0.900000E-01   1.00800           0
      2481 MEMB     18       POPC     C34      CTL2    -0.180000       12.0110           0
      2482 MEMB     18       POPC     H4X      HAL2     0.900000E-01   1.00800           0
      2483 MEMB     18       POPC     H4Y      HAL2     0.900000E-01   1.00800           0
      2484 MEMB     18       POPC     C35      CTL2    -0.180000       12.0110           0
      2485 MEMB     18       POPC     H5X      HAL2     0.900000E-01   1.00800           0
      2486 MEMB     18       POPC     H5Y      HAL2     0.900000E-01   1.00800           0
      2487 MEMB     18       POPC     C36      CTL2    -0.180000       12.0110           0
      2488 MEMB     18       POPC     H6X      HAL2     0.900000E-01   1.00800           0
      2489 MEMB     18       POPC     H6Y      HAL2     0.900000E-01   1.00800           0
      2490 MEMB     18       POPC     C37      CTL2    -0.180000       12.0110           0
      2491 MEMB     18       POPC     H7X      HAL2     0.900000E-01   1.00800           0
      2492 MEMB     18       POPC     H7Y      HAL2     0.900000E-01   1.00800           0
      2493 MEMB     18       POPC     C38      CTL2    -0.180000       12.0110           0
      2494 MEMB     18       POPC     H8X      HAL2     0.900000E-01   1.00800           0
      2495 MEMB     18       POPC     H8Y      HAL2     0.900000E-01   1.00800           0
      2496 MEMB     18       POPC     C39      CTL2    -0.180000       12.0110           0
      2497 MEMB     18       POPC     H9X      HAL2     0.900000E-01   1.00800           0
      2498 MEMB     18       POPC     H9Y      HAL2     0.900000E-01   1.00800           0
      2499 MEMB     18       POPC     C310     CTL2    -0.180000       12.0110           0
      2500 MEMB     18       POPC     H10X     HAL2     0.900000E-01   1.00800           0
      2501 MEMB     18       POPC     H10Y     HAL2     0.900000E-01   1.00800           0
      2502 MEMB     18       POPC     C311     CTL2    -0.180000       12.0110           0
      2503 MEMB     18       POPC     H11X     HAL2     0.900000E-01   1.00800           0
      2504 MEMB     18       POPC     H11Y     HAL2     0.900000E-01   1.00800           0
      2505 MEMB     18       POPC     C312     CTL2    -0.180000       12.0110           0
      2506 MEMB     18       POPC     H12X     HAL2     0.900000E-01   1.00800           0
      2507 MEMB     18       POPC     H12Y     HAL2     0.900000E-01   1.00800           0
      2508 MEMB     18       POPC     C313     CTL2    -0.180000       12.0110           0
      2509 MEMB     18       POPC     H13X     HAL2     0.900000E-01   1.00800           0
      2510 MEMB     18       POPC     H13Y     HAL2     0.900000E-01   1.00800           0
      2511 MEMB     18       POPC     C314     CTL2    -0.180000       12.0110           0
      2512 MEMB     18       POPC     H14X     HAL2     0.900000E-01   1.00800           0
      2513 MEMB     18       POPC     H14Y     HAL2     0.900000E-01   1.00800           0
      2514 MEMB     18       POPC     C315     CTL2    -0.180000       12.0110           0
      2515 MEMB     18       POPC     H15X     HAL2     0.900000E-01   1.00800           0
      2516 MEMB     18       POPC     H15Y     HAL2     0.900000E-01   1.00800           0
      2517 MEMB     18       POPC     C316     CTL3    -0.270000       12.0110           0
      2518 MEMB     18       POPC     H16X     HAL3     0.900000E-01   1.00800           0
      2519 MEMB     18       POPC     H16Y     HAL3     0.900000E-01   1.00800           0
      2520 MEMB     18       POPC     H16Z     HAL3     0.900000E-01   1.00800           0
      2521 MEMB     19       POPC     N        NTL     -0.600000       14.0070           0
      2522 MEMB     19       POPC     C12      CTL2    -0.100000       12.0110           0
      2523 MEMB     19       POPC     H12A     HL       0.250000       1.00800           0
      2524 MEMB     19       POPC     H12B     HL       0.250000       1.00800           0
      2525 MEMB     19       POPC     C13      CTL5    -0.350000       12.0110           0
      2526 MEMB     19       POPC     H13A     HL       0.250000       1.00800           0
      2527 MEMB     19       POPC     H13B     HL       0.250000       1.00800           0
      2528 MEMB     19       POPC     H13C     HL       0.250000       1.00800           0
      2529 MEMB     19       POPC     C14      CTL5    -0.350000       12.0110           0
      2530 MEMB     19       POPC     H14A     HL       0.250000       1.00800           0
      2531 MEMB     19       POPC     H14B     HL       0.250000       1.00800           0
      2532 MEMB     19       POPC     H14C     HL       0.250000       1.00800           0
      2533 MEMB     19       POPC     C15      CTL5    -0.350000       12.0110           0
      2534 MEMB     19       POPC     H15A     HL       0.250000       1.00800           0
      2535 MEMB     19       POPC     H15B     HL       0.250000       1.00800           0
      2536 MEMB     19       POPC     H15C     HL       0.250000       1.00800           0
      2537 MEMB     19       POPC     C11      CTL2    -0.800000E-01   12.0110           0
      2538 MEMB     19       POPC     H11A     HAL2     0.900000E-01   1.00800           0
      2539 MEMB     19       POPC     H11B     HAL2     0.900000E-01   1.00800           0
      2540 MEMB     19       POPC     P        PL       1.500000       30.9740           0
      2541 MEMB     19       POPC     O13      O2L     -0.780000       15.9994           0
      2542 MEMB     19       POPC     O14      O2L     -0.780000       15.9994           0
      2543 MEMB     19       POPC     O12      OSLP    -0.570000       15.9994           0
      2544 MEMB     19       POPC     O11      OSLP    -0.570000       15.9994           0
      2545 MEMB     19       POPC     C1       CTL2    -0.800000E-01   12.0110           0
      2546 MEMB     19       POPC     HA       HAL2     0.900000E-01   1.00800           0
      2547 MEMB     19       POPC     HB       HAL2     0.900000E-01   1.00800           0
      2548 MEMB     19       POPC     C2       CTL1     0.170000       12.0110           0
      2549 MEMB     19       POPC     HS       HAL1     0.900000E-01   1.00800           0
      2550 MEMB     19       POPC     O21      OSL     -0.490000       15.9994           0
      2551 MEMB     19       POPC     C21      CL       0.900000       12.0110           0
      2552 MEMB     19       POPC     O22      OBL     -0.630000       15.9994           0
      2553 MEMB     19       POPC     C22      CTL2    -0.220000       12.0110           0
      2554 MEMB     19       POPC     H2R      HAL2     0.900000E-01   1.00800           0
      2555 MEMB     19       POPC     H2S      HAL2     0.900000E-01   1.00800           0
      2556 MEMB     19       POPC     C3       CTL2     0.800000E-01   12.0110           0
      2557 MEMB     19       POPC     HX       HAL2     0.900000E-01   1.00800           0
      2558 MEMB     19       POPC     HY       HAL2     0.900000E-01   1.00800           0
      2559 MEMB     19       POPC     O31      OSL     -0.490000       15.9994           0
      2560 MEMB     19       POPC     C31      CL       0.900000       12.0110           0
      2561 MEMB     19       POPC     O32      OBL     -0.630000       15.9994           0
      2562 MEMB     19       POPC     C32      CTL2    -0.220000       12.0110           0
      2563 MEMB     19       POPC     H2X      HAL2     0.900000E-01   1.00800           0
      2564 MEMB     19       POPC     H2Y      HAL2     0.900000E-01   1.00800           0
      2565 MEMB     19       POPC     C23      CTL2    -0.180000       12.0110           0
      2566 MEMB     19       POPC     H3R      HAL2     0.900000E-01   1.00800           0
      2567 MEMB     19       POPC     H3S      HAL2     0.900000E-01   1.00800           0
      2568 MEMB     19       POPC     C24      CTL2    -0.180000       12.0110           0
      2569 MEMB     19       POPC     H4R      HAL2     0.900000E-01   1.00800           0
      2570 MEMB     19       POPC     H4S      HAL2     0.900000E-01   1.00800           0
      2571 MEMB     19       POPC     C25      CTL2    -0.180000       12.0110           0
      2572 MEMB     19       POPC     H5R      HAL2     0.900000E-01   1.00800           0
      2573 MEMB     19       POPC     H5S      HAL2     0.900000E-01   1.00800           0
      2574 MEMB     19       POPC     C26      CTL2    -0.180000       12.0110           0
      2575 MEMB     19       POPC     H6R      HAL2     0.900000E-01   1.00800           0
      2576 MEMB     19       POPC     H6S      HAL2     0.900000E-01   1.00800           0
      2577 MEMB     19       POPC     C27      CTL2    -0.180000       12.0110           0
      2578 MEMB     19       POPC     H7R      HAL2     0.900000E-01   1.00800           0
      2579 MEMB     19       POPC     H7S      HAL2     0.900000E-01   1.00800           0
      2580 MEMB     19       POPC     C28      CTL2    -0.180000       12.0110           0
      2581 MEMB     19       POPC     H8R      HAL2     0.900000E-01   1.00800           0
      2582 MEMB     19       POPC     H8S      HAL2     0.900000E-01   1.00800           0
      2583 MEMB     19       POPC     C29      CEL1    -0.150000       12.0110           0
      2584 MEMB     19       POPC     H91      HEL1     0.150000       1.00800           0
      2585 MEMB     19       POPC     C210     CEL1    -0.150000       12.0110           0
      2586 MEMB     19       POPC     H101     HEL1     0.150000       1.00800           0
      2587 MEMB     19       POPC     C211     CTL2    -0.180000       12.0110           0
      2588 MEMB     19       POPC     H11R     HAL2     0.900000E-01   1.00800           0
      2589 MEMB     19       POPC     H11S     HAL2     0.900000E-01   1.00800           0
      2590 MEMB     19       POPC     C212     CTL2    -0.180000       12.0110           0
      2591 MEMB     19       POPC     H12R     HAL2     0.900000E-01   1.00800           0
      2592 MEMB     19       POPC     H12S     HAL2     0.900000E-01   1.00800           0
      2593 MEMB     19       POPC     C213     CTL2    -0.180000       12.0110           0
      2594 MEMB     19       POPC     H13R     HAL2     0.900000E-01   1.00800           0
      2595 MEMB     19       POPC     H13S     HAL2     0.900000E-01   1.00800           0
      2596 MEMB     19       POPC     C214     CTL2    -0.180000       12.0110           0
      2597 MEMB     19       POPC     H14R     HAL2     0.900000E-01   1.00800           0
      2598 MEMB     19       POPC     H14S     HAL2     0.900000E-01   1.00800           0
      2599 MEMB     19       POPC     C215     CTL2    -0.180000       12.0110           0
      2600 MEMB     19       POPC     H15R     HAL2     0.900000E-01   1.00800           0
      2601 MEMB     19       POPC     H15S     HAL2     0.900000E-01   1.00800           0
      2602 MEMB     19       POPC     C216     CTL2    -0.180000       12.0110           0
      2603 MEMB     19       POPC     H16R     HAL2     0.900000E-01   1.00800           0
      2604 MEMB     19       POPC     H16S     HAL2     0.900000E-01   1.00800           0
      2605 MEMB     19       POPC     C217     CTL2    -0.180000       12.0110           0
      2606 MEMB     19       POPC     H17R     HAL2     0.900000E-01   1.00800           0
      2607 MEMB     19       POPC     H17S     HAL2     0.900000E-01   1.00800           0
      2608 MEMB     19       POPC     C218     CTL3    -0.270000       12.0110           0
      2609 MEMB     19       POPC     H18R     HAL3     0.900000E-01   1.00800           0
      2610 MEMB     19       POPC     H18S     HAL3     0.900000E-01   1.00800           0
      2611 MEMB     19       POPC     H18T     HAL3     0.900000E-01   1.00800           0
      2612 MEMB     19       POPC     C33      CTL2    -0.180000       12.0110           0
      2613 MEMB     19       POPC     H3X      HAL2     0.900000E-01   1.00800           0
      2614 MEMB     19       POPC     H3Y      HAL2     0.900000E-01   1.00800           0
      2615 MEMB     19       POPC     C34      CTL2    -0.180000       12.0110           0
      2616 MEMB     19       POPC     H4X      HAL2     0.900000E-01   1.00800           0
      2617 MEMB     19       POPC     H4Y      HAL2     0.900000E-01   1.00800           0
      2618 MEMB     19       POPC     C35      CTL2    -0.180000       12.0110           0
      2619 MEMB     19       POPC     H5X      HAL2     0.900000E-01   1.00800           0
      2620 MEMB     19       POPC     H5Y      HAL2     0.900000E-01   1.00800           0
      2621 MEMB     19       POPC     C36      CTL2    -0.180000       12.0110           0
      2622 MEMB     19       POPC     H6X      HAL2     0.900000E-01   1.00800           0
      2623 MEMB     19       POPC     H6Y      HAL2     0.900000E-01   1.00800           0
      2624 MEMB     19       POPC     C37      CTL2    -0.180000       12.0110           0
      2625 MEMB     19       POPC     H7X      HAL2     0.900000E-01   1.00800           0
      2626 MEMB     19       POPC     H7Y      HAL2     0.900000E-01   1.00800           0
      2627 MEMB     19       POPC     C38      CTL2    -0.180000       12.0110           0
      2628 MEMB     19       POPC     H8X      HAL2     0.900000E-01   1.00800           0
      2629 MEMB     19       POPC     H8Y      HAL2     0.900000E-01   1.00800           0
      2630 MEMB     19       POPC     C39      CTL2    -0.180000       12.0110           0
      2631 MEMB     19       POPC     H9X      HAL2     0.900000E-01   1.00800           0
      2632 MEMB     19       POPC     H9Y      HAL2     0.900000E-01   1.00800           0
      2633 MEMB     19       POPC     C310     CTL2    -0.180000       12.0110           0
      2634 MEMB     19       POPC     H10X     HAL2     0.900000E-01   1.00800           0
      2635 MEMB     19       POPC     H10Y     HAL2     0.900000E-01   1.00800           0
      2636 MEMB     19       POPC     C311     CTL2    -0.180000       12.0110           0
      2637 MEMB     19       POPC     H11X     HAL2     0.900000E-01   1.00800           0
      2638 MEMB     19       POPC     H11Y     HAL2     0.900000E-01   1.00800           0
      2639 MEMB     19       POPC     C312     CTL2    -0.180000       12.0110           0
      2640 MEMB     19       POPC     H12X     HAL2     0.900000E-01   1.00800           0
      2641 MEMB     19       POPC     H12Y     HAL2     0.900000E-01   1.00800           0
      2642 MEMB     19       POPC     C313     CTL2    -0.180000       12.0110           0
      2643 MEMB     19       POPC     H13X     HAL2     0.900000E-01   1.00800           0
      2644 MEMB     19       POPC     H13Y     HAL2     0.900000E-01   1.00800           0
      2645 MEMB     19       POPC     C314     CTL2    -0.180000       12.0110           0
      2646 MEMB     19       POPC     H14X     HAL2     0.900000E-01   1.00800           0
      2647 MEMB     19       POPC     H14Y     HAL2     0.900000E-01   1.00800           0
      2648 MEMB     19       POPC     C315     CTL2    -0.180000       12.0110           0
      2649 MEMB     19       POPC     H15X     HAL2     0.900000E-01   1.00800           0
      2650 MEMB     19       POPC     H15Y     HAL2     0.900000E-01   1.00800           0
      2651 MEMB     19       POPC     C316     CTL3    -0.270000       12.0110           0
      2652 MEMB     19       POPC     H16X     HAL3     0.900000E-01   1.00800           0
      2653 MEMB     19       POPC     H16Y     HAL3     0.900000E-01   1.00800           0
      2654 MEMB     19       POPC     H16Z     HAL3     0.900000E-01   1.00800           0
      2655 MEMB     20       POPS     N        NH3L    -0.300000       14.0070           0
      2656 MEMB     20       POPS     HN1      HCL      0.330000       1.00800           0
      2657 MEMB     20       POPS     HN2      HCL      0.330000       1.00800           0
      2658 MEMB     20       POPS     HN3      HCL      0.330000       1.00800           0
      2659 MEMB     20       POPS     C12      CTL1     0.210000       12.0110           0
      2660 MEMB     20       POPS     H12A     HBL      0.100000       1.00800           0
      2661 MEMB     20       POPS     C13      CCL      0.340000       12.0110           0
      2662 MEMB     20       POPS     O13A     OCL     -0.670000       15.9994           0
      2663 MEMB     20       POPS     O13B     OCL     -0.670000       15.9994           0
      2664 MEMB     20       POPS     C11      CTL2    -0.800000E-01   12.0110           0
      2665 MEMB     20       POPS     H11A     HAL2     0.900000E-01   1.00800           0
      2666 MEMB     20       POPS     H11B     HAL2     0.900000E-01   1.00800           0
      2667 MEMB     20       POPS     P        PL       1.500000       30.9740           0
      2668 MEMB     20       POPS     O13      O2L     -0.780000       15.9994           0
      2669 MEMB     20       POPS     O14      O2L     -0.780000       15.9994           0
      2670 MEMB     20       POPS     O12      OSLP    -0.570000       15.9994           0
      2671 MEMB     20       POPS     O11      OSLP    -0.570000       15.9994           0
      2672 MEMB     20       POPS     C1       CTL2    -0.800000E-01   12.0110           0
      2673 MEMB     20       POPS     HA       HAL2     0.900000E-01   1.00800           0
      2674 MEMB     20       POPS     HB       HAL2     0.900000E-01   1.00800           0
      2675 MEMB     20       POPS     C2       CTL1     0.170000       12.0110           0
      2676 MEMB     20       POPS     HS       HAL1     0.900000E-01   1.00800           0
      2677 MEMB     20       POPS     O21      OSL     -0.490000       15.9994           0
      2678 MEMB     20       POPS     C21      CL       0.900000       12.0110           0
      2679 MEMB     20       POPS     O22      OBL     -0.630000       15.9994           0
      2680 MEMB     20       POPS     C22      CTL2    -0.220000       12.0110           0
      2681 MEMB     20       POPS     H2R      HAL2     0.900000E-01   1.00800           0
      2682 MEMB     20       POPS     H2S      HAL2     0.900000E-01   1.00800           0
      2683 MEMB     20       POPS     C3       CTL2     0.800000E-01   12.0110           0
      2684 MEMB     20       POPS     HX       HAL2     0.900000E-01   1.00800           0
      2685 MEMB     20       POPS     HY       HAL2     0.900000E-01   1.00800           0
      2686 MEMB     20       POPS     O31      OSL     -0.490000       15.9994           0
      2687 MEMB     20       POPS     C31      CL       0.900000       12.0110           0
      2688 MEMB     20       POPS     O32      OBL     -0.630000       15.9994           0
      2689 MEMB     20       POPS     C32      CTL2    -0.220000       12.0110           0
      2690 MEMB     20       POPS     H2X      HAL2     0.900000E-01   1.00800           0
      2691 MEMB     20       POPS     H2Y      HAL2     0.900000E-01   1.00800           0
      2692 MEMB     20       POPS     C23      CTL2    -0.180000       12.0110           0
      2693 MEMB     20       POPS     H3R      HAL2     0.900000E-01   1.00800           0
      2694 MEMB     20       POPS     H3S      HAL2     0.900000E-01   1.00800           0
      2695 MEMB     20       POPS     C24      CTL2    -0.180000       12.0110           0
      2696 MEMB     20       POPS     H4R      HAL2     0.900000E-01   1.00800           0
      2697 MEMB     20       POPS     H4S      HAL2     0.900000E-01   1.00800           0
      2698 MEMB     20       POPS     C25      CTL2    -0.180000       12.0110           0
      2699 MEMB     20       POPS     H5R      HAL2     0.900000E-01   1.00800           0
      2700 MEMB     20       POPS     H5S      HAL2     0.900000E-01   1.00800           0
      2701 MEMB     20       POPS     C26      CTL2    -0.180000       12.0110           0
      2702 MEMB     20       POPS     H6R      HAL2     0.900000E-01   1.00800           0
      2703 MEMB     20       POPS     H6S      HAL2     0.900000E-01   1.00800           0
      2704 MEMB     20       POPS     C27      CTL2    -0.180000       12.0110           0
      2705 MEMB     20       POPS     H7R      HAL2     0.900000E-01   1.00800           0
      2706 MEMB     20       POPS     H7S      HAL2     0.900000E-01   1.00800           0
      2707 MEMB     20       POPS     C28      CTL2    -0.180000       12.0110           0
      2708 MEMB     20       POPS     H8R      HAL2     0.900000E-01   1.00800           0
      2709 MEMB     20       POPS     H8S      HAL2     0.900000E-01   1.00800           0
      2710 MEMB     20       POPS     C29      CEL1    -0.150000       12.0110           0
      2711 MEMB     20       POPS     H91      HEL1     0.150000       1.00800           0
      2712 MEMB     20       POPS     C210     CEL1    -0.150000       12.0110           0
      2713 MEMB     20       POPS     H101     HEL1     0.150000       1.00800           0
      2714 MEMB     20       POPS     C211     CTL2    -0.180000       12.0110           0
      2715 MEMB     20       POPS     H11R     HAL2     0.900000E-01   1.00800           0
      2716 MEMB     20       POPS     H11S     HAL2     0.900000E-01   1.00800           0
      2717 MEMB     20       POPS     C212     CTL2    -0.180000       12.0110           0
      2718 MEMB     20       POPS     H12R     HAL2     0.900000E-01   1.00800           0
      2719 MEMB     20       POPS     H12S     HAL2     0.900000E-01   1.00800           0
      2720 MEMB     20       POPS     C213     CTL2    -0.180000       12.0110           0
      2721 MEMB     20       POPS     H13R     HAL2     0.900000E-01   1.00800           0
      2722 MEMB     20       POPS     H13S     HAL2     0.900000E-01   1.00800           0
      2723 MEMB     20       POPS     C214     CTL2    -0.180000       12.0110           0
      2724 MEMB     20       POPS     H14R     HAL2     0.900000E-01   1.00800           0
      2725 MEMB     20       POPS     H14S     HAL2     0.900000E-01   1.00800           0
      2726 MEMB     20       POPS     C215     CTL2    -0.180000       12.0110           0
      2727 MEMB     20       POPS     H15R     HAL2     0.900000E-01   1.00800           0
      2728 MEMB     20       POPS     H15S     HAL2     0.900000E-01   1.00800           0
      2729 MEMB     20       POPS     C216     CTL2    -0.180000       12.0110           0
      2730 MEMB     20       POPS     H16R     HAL2     0.900000E-01   1.00800           0
      2731 MEMB     20       POPS     H16S     HAL2     0.900000E-01   1.00800           0
      2732 MEMB     20       POPS     C217     CTL2    -0.180000       12.0110           0
      2733 MEMB     20       POPS     H17R     HAL2     0.900000E-01   1.00800           0
      2734 MEMB     20       POPS     H17S     HAL2     0.900000E-01   1.00800           0
      2735 MEMB     20       POPS     C218     CTL3    -0.270000       12.0110           0
      2736 MEMB     20       POPS     H18R     HAL3     0.900000E-01   1.00800           0
      2737 MEMB     20       POPS     H18S     HAL3     0.900000E-01   1.00800           0
      2738 MEMB     20       POPS     H18T     HAL3     0.900000E-01   1.00800           0
      2739 MEMB     20       POPS     C33      CTL2    -0.180000       12.0110           0
      2740 MEMB     20       POPS     H3X      HAL2     0.900000E-01   1.00800           0
      2741 MEMB     20       POPS     H3Y      HAL2     0.900000E-01   1.00800           0
      2742 MEMB     20       POPS     C34      CTL2    -0.180000       12.0110           0
      2743 MEMB     20       POPS     H4X      HAL2     0.900000E-01   1.00800           0
      2744 MEMB     20       POPS     H4Y      HAL2     0.900000E-01   1.00800           0
      2745 MEMB     20       POPS     C35      CTL2    -0.180000       12.0110           0
      2746 MEMB     20       POPS     H5X      HAL2     0.900000E-01   1.00800           0
      2747 MEMB     20       POPS     H5Y      HAL2     0.900000E-01   1.00800           0
      2748 MEMB     20       POPS     C36      CTL2    -0.180000       12.0110           0
      2749 MEMB     20       POPS     H6X      HAL2     0.900000E-01   1.00800           0
      2750 MEMB     20       POPS     H6Y      HAL2     0.900000E-01   1.00800           0
      2751 MEMB     20       POPS     C37      CTL2    -0.180000       12.0110           0
      2752 MEMB     20       POPS     H7X      HAL2     0.900000E-01   1.00800           0
      2753 MEMB     20       POPS     H7Y      HAL2     0.900000E-01   1.00800           0
      2754 MEMB     20       POPS     C38      CTL2    -0.180000       12.0110           0
      2755 MEMB     20       POPS     H8X      HAL2     0.900000E-01   1.00800           0
      2756 MEMB     20       POPS     H8Y      HAL2     0.900000E-01   1.00800           0
      2757 MEMB     20       POPS     C39      CTL2    -0.180000       12.0110           0
      2758 MEMB     20       POPS     H9X      HAL2     0.900000E-01   1.00800           0
      2759 MEMB     20       POPS     H9Y      HAL2     0.900000E-01   1.00800           0
      2760 MEMB     20       POPS     C310     CTL2    -0.180000       12.0110           0
      2761 MEMB     20       POPS     H10X     HAL2     0.900000E-01   1.00800           0
      2762 MEMB     20       POPS     H10Y     HAL2     0.900000E-01   1.00800           0
      2763 MEMB     20       POPS     C311     CTL2    -0.180000       12.0110           0
      2764 MEMB     20       POPS     H11X     HAL2     0.900000E-01   1.00800           0
      2765 MEMB     20       POPS     H11Y     HAL2     0.900000E-01   1.00800           0
      2766 MEMB     20       POPS     C312     CTL2    -0.180000       12.0110           0
      2767 MEMB     20       POPS     H12X     HAL2     0.900000E-01   1.00800           0
      2768 MEMB     20       POPS     H12Y     HAL2     0.900000E-01   1.00800           0
      2769 MEMB     20       POPS     C313     CTL2    -0.180000       12.0110           0
      2770 MEMB     20       POPS     H13X     HAL2     0.900000E-01   1.00800           0
      2771 MEMB     20       POPS     H13Y     HAL2     0.900000E-01   1.00800           0
      2772 MEMB     20       POPS     C314     CTL2    -0.180000       12.0110           0
      2773 MEMB     20       POPS     H14X     HAL2     0.900000E-01   1.00800           0
      2774 MEMB     20       POPS     H14Y     HAL2     0.900000E-01   1.00800           0
      2775 MEMB     20       POPS     C315     CTL2    -0.180000       12.0110           0
      2776 MEMB     20       POPS     H15X     HAL2     0.900000E-01   1.00800           0
      2777 MEMB     20       POPS     H15Y     HAL2     0.900000E-01   1.00800           0
      2778 MEMB     20       POPS     C316     CTL3    -0.270000       12.0110           0
      2779 MEMB     20       POPS     H16X     HAL3     0.900000E-01   1.00800           0
      2780 MEMB     20       POPS     H16Y     HAL3     0.900000E-01   1.00800           0
      2781 MEMB     20       POPS     H16Z     HAL3     0.900000E-01   1.00800           0
      2782 MEMB     21       POPC     N        NTL     -0.600000       14.0070           0
      2783 MEMB     21       POPC     C12      CTL2    -0.100000       12.0110           0
      2784 MEMB     21       POPC     H12A     HL       0.250000       1.00800           0
      2785 MEMB     21       POPC     H12B     HL       0.250000       1.00800           0
      2786 MEMB     21       POPC     C13      CTL5    -0.350000       12.0110           0
      2787 MEMB     21       POPC     H13A     HL       0.250000       1.00800           0
      2788 MEMB     21       POPC     H13B     HL       0.250000       1.00800           0
      2789 MEMB     21       POPC     H13C     HL       0.250000       1.00800           0
      2790 MEMB     21       POPC     C14      CTL5    -0.350000       12.0110           0
      2791 MEMB     21       POPC     H14A     HL       0.250000       1.00800           0
      2792 MEMB     21       POPC     H14B     HL       0.250000       1.00800           0
      2793 MEMB     21       POPC     H14C     HL       0.250000       1.00800           0
      2794 MEMB     21       POPC     C15      CTL5    -0.350000       12.0110           0
      2795 MEMB     21       POPC     H15A     HL       0.250000       1.00800           0
      2796 MEMB     21       POPC     H15B     HL       0.250000       1.00800           0
      2797 MEMB     21       POPC     H15C     HL       0.250000       1.00800           0
      2798 MEMB     21       POPC     C11      CTL2    -0.800000E-01   12.0110           0
      2799 MEMB     21       POPC     H11A     HAL2     0.900000E-01   1.00800           0
      2800 MEMB     21       POPC     H11B     HAL2     0.900000E-01   1.00800           0
      2801 MEMB     21       POPC     P        PL       1.500000       30.9740           0
      2802 MEMB     21       POPC     O13      O2L     -0.780000       15.9994           0
      2803 MEMB     21       POPC     O14      O2L     -0.780000       15.9994           0
      2804 MEMB     21       POPC     O12      OSLP    -0.570000       15.9994           0
      2805 MEMB     21       POPC     O11      OSLP    -0.570000       15.9994           0
      2806 MEMB     21       POPC     C1       CTL2    -0.800000E-01   12.0110           0
      2807 MEMB     21       POPC     HA       HAL2     0.900000E-01   1.00800           0
      2808 MEMB     21       POPC     HB       HAL2     0.900000E-01   1.00800           0
      2809 MEMB     21       POPC     C2       CTL1     0.170000       12.0110           0
      2810 MEMB     21       POPC     HS       HAL1     0.900000E-01   1.00800           0
      2811 MEMB     21       POPC     O21      OSL     -0.490000       15.9994           0
      2812 MEMB     21       POPC     C21      CL       0.900000       12.0110           0
      2813 MEMB     21       POPC     O22      OBL     -0.630000       15.9994           0
      2814 MEMB     21       POPC     C22      CTL2    -0.220000       12.0110           0
      2815 MEMB     21       POPC     H2R      HAL2     0.900000E-01   1.00800           0
      2816 MEMB     21       POPC     H2S      HAL2     0.900000E-01   1.00800           0
      2817 MEMB     21       POPC     C3       CTL2     0.800000E-01   12.0110           0
      2818 MEMB     21       POPC     HX       HAL2     0.900000E-01   1.00800           0
      2819 MEMB     21       POPC     HY       HAL2     0.900000E-01   1.00800           0
      2820 MEMB     21       POPC     O31      OSL     -0.490000       15.9994           0
      2821 MEMB     21       POPC     C31      CL       0.900000       12.0110           0
      2822 MEMB     21       POPC     O32      OBL     -0.630000       15.9994           0
      2823 MEMB     21       POPC     C32      CTL2    -0.220000       12.0110           0
      2824 MEMB     21       POPC     H2X      HAL2     0.900000E-01   1.00800           0
      2825 MEMB     21       POPC     H2Y      HAL2     0.900000E-01   1.00800           0
      2826 MEMB     21       POPC     C23      CTL2    -0.180000       12.0110           0
      2827 MEMB     21       POPC     H3R      HAL2     0.900000E-01   1.00800           0
      2828 MEMB     21       POPC     H3S      HAL2     0.900000E-01   1.00800           0
      2829 MEMB     21       POPC     C24      CTL2    -0.180000       12.0110           0
      2830 MEMB     21       POPC     H4R      HAL2     0.900000E-01   1.00800           0
      2831 MEMB     21       POPC     H4S      HAL2     0.900000E-01   1.00800           0
      2832 MEMB     21       POPC     C25      CTL2    -0.180000       12.0110           0
      2833 MEMB     21       POPC     H5R      HAL2     0.900000E-01   1.00800           0
      2834 MEMB     21       POPC     H5S      HAL2     0.900000E-01   1.00800           0
      2835 MEMB     21       POPC     C26      CTL2    -0.180000       12.0110           0
      2836 MEMB     21       POPC     H6R      HAL2     0.900000E-01   1.00800           0
      2837 MEMB     21       POPC     H6S      HAL2     0.900000E-01   1.00800           0
      2838 MEMB     21       POPC     C27      CTL2    -0.180000       12.0110           0
      2839 MEMB     21       POPC     H7R      HAL2     0.900000E-01   1.00800           0
      2840 MEMB     21       POPC     H7S      HAL2     0.900000E-01   1.00800           0
      2841 MEMB     21       POPC     C28      CTL2    -0.180000       12.0110           0
      2842 MEMB     21       POPC     H8R      HAL2     0.900000E-01   1.00800           0
      2843 MEMB     21       POPC     H8S      HAL2     0.900000E-01   1.00800           0
      2844 MEMB     21       POPC     C29      CEL1    -0.150000       12.0110           0
      2845 MEMB     21       POPC     H91      HEL1     0.150000       1.00800           0
      2846 MEMB     21       POPC     C210     CEL1    -0.150000       12.0110           0
      2847 MEMB     21       POPC     H101     HEL1     0.150000       1.00800           0
      2848 MEMB     21       POPC     C211     CTL2    -0.180000       12.0110           0
      2849 MEMB     21       POPC     H11R     HAL2     0.900000E-01   1.00800           0
      2850 MEMB     21       POPC     H11S     HAL2     0.900000E-01   1.00800           0
      2851 MEMB     21       POPC     C212     CTL2    -0.180000       12.0110           0
      2852 MEMB     21       POPC     H12R     HAL2     0.900000E-01   1.00800           0
      2853 MEMB     21       POPC     H12S     HAL2     0.900000E-01   1.00800           0
      2854 MEMB     21       POPC     C213     CTL2    -0.180000       12.0110           0
      2855 MEMB     21       POPC     H13R     HAL2     0.900000E-01   1.00800           0
      2856 MEMB     21       POPC     H13S     HAL2     0.900000E-01   1.00800           0
      2857 MEMB     21       POPC     C214     CTL2    -0.180000       12.0110           0
      2858 MEMB     21       POPC     H14R     HAL2     0.900000E-01   1.00800           0
      2859 MEMB     21       POPC     H14S     HAL2     0.900000E-01   1.00800           0
      2860 MEMB     21       POPC     C215     CTL2    -0.180000       12.0110           0
      2861 MEMB     21       POPC     H15R     HAL2     0.900000E-01   1.00800           0
      2862 MEMB     21       POPC     H15S     HAL2     0.900000E-01   1.00800           0
      2863 MEMB     21       POPC     C216     CTL2    -0.180000       12.0110           0
      2864 MEMB     21       POPC     H16R     HAL2     0.900000E-01   1.00800           0
      2865 MEMB     21       POPC     H16S     HAL2     0.900000E-01   1.00800           0
      2866 MEMB     21       POPC     C217     CTL2    -0.180000       12.0110           0
      2867 MEMB     21       POPC     H17R     HAL2     0.900000E-01   1.00800           0
      2868 MEMB     21       POPC     H17S     HAL2     0.900000E-01   1.00800           0
      2869 MEMB     21       POPC     C218     CTL3    -0.270000       12.0110           0
      2870 MEMB     21       POPC     H18R     HAL3     0.900000E-01   1.00800           0
      2871 MEMB     21       POPC     H18S     HAL3     0.900000E-01   1.00800           0
      2872 MEMB     21       POPC     H18T     HAL3     0.900000E-01   1.00800           0
      2873 MEMB     21       POPC     C33      CTL2    -0.180000       12.0110           0
      2874 MEMB     21       POPC     H3X      HAL2     0.900000E-01   1.00800           0
      2875 MEMB     21       POPC     H3Y      HAL2     0.900000E-01   1.00800           0
      2876 MEMB     21       POPC     C34      CTL2    -0.180000       12.0110           0
      2877 MEMB     21       POPC     H4X      HAL2     0.900000E-01   1.00800           0
      2878 MEMB     21       POPC     H4Y      HAL2     0.900000E-01   1.00800           0
      2879 MEMB     21       POPC     C35      CTL2    -0.180000       12.0110           0
      2880 MEMB     21       POPC     H5X      HAL2     0.900000E-01   1.00800           0
      2881 MEMB     21       POPC     H5Y      HAL2     0.900000E-01   1.00800           0
      2882 MEMB     21       POPC     C36      CTL2    -0.180000       12.0110           0
      2883 MEMB     21       POPC     H6X      HAL2     0.900000E-01   1.00800           0
      2884 MEMB     21       POPC     H6Y      HAL2     0.900000E-01   1.00800           0
      2885 MEMB     21       POPC     C37      CTL2    -0.180000       12.0110           0
      2886 MEMB     21       POPC     H7X      HAL2     0.900000E-01   1.00800           0
      2887 MEMB     21       POPC     H7Y      HAL2     0.900000E-01   1.00800           0
      2888 MEMB     21       POPC     C38      CTL2    -0.180000       12.0110           0
      2889 MEMB     21       POPC     H8X      HAL2     0.900000E-01   1.00800           0
      2890 MEMB     21       POPC     H8Y      HAL2     0.900000E-01   1.00800           0
      2891 MEMB     21       POPC     C39      CTL2    -0.180000       12.0110           0
      2892 MEMB     21       POPC     H9X      HAL2     0.900000E-01   1.00800           0
      2893 MEMB     21       POPC     H9Y      HAL2     0.900000E-01   1.00800           0
      2894 MEMB     21       POPC     C310     CTL2    -0.180000       12.0110           0
      2895 MEMB     21       POPC     H10X     HAL2     0.900000E-01   1.00800           0
      2896 MEMB     21       POPC     H10Y     HAL2     0.900000E-01   1.00800           0
      2897 MEMB     21       POPC     C311     CTL2    -0.180000       12.0110           0
      2898 MEMB     21       POPC     H11X     HAL2     0.900000E-01   1.00800           0
      2899 MEMB     21       POPC     H11Y     HAL2     0.900000E-01   1.00800           0
      2900 MEMB     21       POPC     C312     CTL2    -0.180000       12.0110           0
      2901 MEMB     21       POPC     H12X     HAL2     0.900000E-01   1.00800           0
      2902 MEMB     21       POPC     H12Y     HAL2     0.900000E-01   1.00800           0
      2903 MEMB     21       POPC     C313     CTL2    -0.180000       12.0110           0
      2904 MEMB     21       POPC     H13X     HAL2     0.900000E-01   1.00800           0
      2905 MEMB     21       POPC     H13Y     HAL2     0.900000E-01   1.00800           0
      2906 MEMB     21       POPC     C314     CTL2    -0.180000       12.0110           0
      2907 MEMB     21       POPC     H14X     HAL2     0.900000E-01   1.00800           0
      2908 MEMB     21       POPC     H14Y     HAL2     0.900000E-01   1.00800           0
      2909 MEMB     21       POPC     C315     CTL2    -0.180000       12.0110           0
      2910 MEMB     21       POPC     H15X     HAL2     0.900000E-01   1.00800           0
      2911 MEMB     21       POPC     H15Y     HAL2     0.900000E-01   1.00800           0
      2912 MEMB     21       POPC     C316     CTL3    -0.270000       12.0110           0
      2913 MEMB     21       POPC     H16X     HAL3     0.900000E-01   1.00800           0
      2914 MEMB     21       POPC     H16Y     HAL3     0.900000E-01   1.00800           0
      2915 MEMB     21       POPC     H16Z     HAL3     0.900000E-01   1.00800           0
      2916 MEMB     22       POPC     N        NTL     -0.600000       14.0070           0
      2917 MEMB     22       POPC     C12      CTL2    -0.100000       12.0110           0
      2918 MEMB     22       POPC     H12A     HL       0.250000       1.00800           0
      2919 MEMB     22       POPC     H12B     HL       0.250000       1.00800           0
      2920 MEMB     22       POPC     C13      CTL5    -0.350000       12.0110           0
      2921 MEMB     22       POPC     H13A     HL       0.250000       1.00800           0
      2922 MEMB     22       POPC     H13B     HL       0.250000       1.00800           0
      2923 MEMB     22       POPC     H13C     HL       0.250000       1.00800           0
      2924 MEMB     22       POPC     C14      CTL5    -0.350000       12.0110           0
      2925 MEMB     22       POPC     H14A     HL       0.250000       1.00800           0
      2926 MEMB     22       POPC     H14B     HL       0.250000       1.00800           0
      2927 MEMB     22       POPC     H14C     HL       0.250000       1.00800           0
      2928 MEMB     22       POPC     C15      CTL5    -0.350000       12.0110           0
      2929 MEMB     22       POPC     H15A     HL       0.250000       1.00800           0
      2930 MEMB     22       POPC     H15B     HL       0.250000       1.00800           0
      2931 MEMB     22       POPC     H15C     HL       0.250000       1.00800           0
      2932 MEMB     22       POPC     C11      CTL2    -0.800000E-01   12.0110           0
      2933 MEMB     22       POPC     H11A     HAL2     0.900000E-01   1.00800           0
      2934 MEMB     22       POPC     H11B     HAL2     0.900000E-01   1.00800           0
      2935 MEMB     22       POPC     P        PL       1.500000       30.9740           0
      2936 MEMB     22       POPC     O13      O2L     -0.780000       15.9994           0
      2937 MEMB     22       POPC     O14      O2L     -0.780000       15.9994           0
      2938 MEMB     22       POPC     O12      OSLP    -0.570000       15.9994           0
      2939 MEMB     22       POPC     O11      OSLP    -0.570000       15.9994           0
      2940 MEMB     22       POPC     C1       CTL2    -0.800000E-01   12.0110           0
      2941 MEMB     22       POPC     HA       HAL2     0.900000E-01   1.00800           0
      2942 MEMB     22       POPC     HB       HAL2     0.900000E-01   1.00800           0
      2943 MEMB     22       POPC     C2       CTL1     0.170000       12.0110           0
      2944 MEMB     22       POPC     HS       HAL1     0.900000E-01   1.00800           0
      2945 MEMB     22       POPC     O21      OSL     -0.490000       15.9994           0
      2946 MEMB     22       POPC     C21      CL       0.900000       12.0110           0
      2947 MEMB     22       POPC     O22      OBL     -0.630000       15.9994           0
      2948 MEMB     22       POPC     C22      CTL2    -0.220000       12.0110           0
      2949 MEMB     22       POPC     H2R      HAL2     0.900000E-01   1.00800           0
      2950 MEMB     22       POPC     H2S      HAL2     0.900000E-01   1.00800           0
      2951 MEMB     22       POPC     C3       CTL2     0.800000E-01   12.0110           0
      2952 MEMB     22       POPC     HX       HAL2     0.900000E-01   1.00800           0
      2953 MEMB     22       POPC     HY       HAL2     0.900000E-01   1.00800           0
      2954 MEMB     22       POPC     O31      OSL     -0.490000       15.9994           0
      2955 MEMB     22       POPC     C31      CL       0.900000       12.0110           0
      2956 MEMB     22       POPC     O32      OBL     -0.630000       15.9994           0
      2957 MEMB     22       POPC     C32      CTL2    -0.220000       12.0110           0
      2958 MEMB     22       POPC     H2X      HAL2     0.900000E-01   1.00800           0
      2959 MEMB     22       POPC     H2Y      HAL2     0.900000E-01   1.00800           0
      2960 MEMB     22       POPC     C23      CTL2    -0.180000       12.0110           0
      2961 MEMB     22       POPC     H3R      HAL2     0.900000E-01   1.00800           0
      2962 MEMB     22       POPC     H3S      HAL2     0.900000E-01   1.00800           0
      2963 MEMB     22       POPC     C24      CTL2    -0.180000       12.0110           0
      2964 MEMB     22       POPC     H4R      HAL2     0.900000E-01   1.00800           0
      2965 MEMB     22       POPC     H4S      HAL2     0.900000E-01   1.00800           0
      2966 MEMB     22       POPC     C25      CTL2    -0.180000       12.0110           0
      2967 MEMB     22       POPC     H5R      HAL2     0.900000E-01   1.00800           0
      2968 MEMB     22       POPC     H5S      HAL2     0.900000E-01   1.00800           0
      2969 MEMB     22       POPC     C26      CTL2    -0.180000       12.0110           0
      2970 MEMB     22       POPC     H6R      HAL2     0.900000E-01   1.00800           0
      2971 MEMB     22       POPC     H6S      HAL2     0.900000E-01   1.00800           0
      2972 MEMB     22       POPC     C27      CTL2    -0.180000       12.0110           0
      2973 MEMB     22       POPC     H7R      HAL2     0.900000E-01   1.00800           0
      2974 MEMB     22       POPC     H7S      HAL2     0.900000E-01   1.00800           0
      2975 MEMB     22       POPC     C28      CTL2    -0.180000       12.0110           0
      2976 MEMB     22       POPC     H8R      HAL2     0.900000E-01   1.00800           0
      2977 MEMB     22       POPC     H8S      HAL2     0.900000E-01   1.00800           0
      2978 MEMB     22       POPC     C29      CEL1    -0.150000       12.0110           0
      2979 MEMB     22       POPC     H91      HEL1     0.150000       1.00800           0
      2980 MEMB     22       POPC     C210     CEL1    -0.150000       12.0110           0
      2981 MEMB     22       POPC     H101     HEL1     0.150000       1.00800           0
      2982 MEMB     22       POPC     C211     CTL2    -0.180000       12.0110           0
      2983 MEMB     22       POPC     H11R     HAL2     0.900000E-01   1.00800           0
      2984 MEMB     22       POPC     H11S     HAL2     0.900000E-01   1.00800           0
      2985 MEMB     22       POPC     C212     CTL2    -0.180000       12.0110           0
      2986 MEMB     22       POPC     H12R     HAL2     0.900000E-01   1.00800           0
      2987 MEMB     22       POPC     H12S     HAL2     0.900000E-01   1.00800           0
      2988 MEMB     22       POPC     C213     CTL2    -0.180000       12.0110           0
      2989 MEMB     22       POPC     H13R     HAL2     0.900000E-01   1.00800           0
      2990 MEMB     22       POPC     H13S     HAL2     0.900000E-01   1.00800           0
      2991 MEMB     22       POPC     C214     CTL2    -0.180000       12.0110           0
      2992 MEMB     22       POPC     H14R     HAL2     0.900000E-01   1.00800           0
      2993 MEMB     22       POPC     H14S     HAL2     0.900000E-01   1.00800           0
      2994 MEMB     22       POPC     C215     CTL2    -0.180000       12.0110           0
      2995 MEMB     22       POPC     H15R     HAL2     0.900000E-01   1.00800           0
      2996 MEMB     22       POPC     H15S     HAL2     0.900000E-01   1.00800           0
      2997 MEMB     22       POPC     C216     CTL2    -0.180000       12.0110           0
      2998 MEMB     22       POPC     H16R     HAL2     0.900000E-01   1.00800           0
      2999 MEMB     22       POPC     H16S     HAL2     0.900000E-01   1.00800           0
      3000 MEMB     22       POPC     C217     CTL2    -0.180000       12.0110           0
      3001 MEMB     22       POPC     H17R     HAL2     0.900000E-01   1.00800           0
      3002 MEMB     22       POPC     H17S     HAL2     0.900000E-01   1.00800           0
      3003 MEMB     22       POPC     C218     CTL3    -0.270000       12.0110           0
      3004 MEMB     22       POPC     H18R     HAL3     0.900000E-01   1.00800           0
      3005 MEMB     22       POPC     H18S     HAL3     0.900000E-01   1.00800           0
      3006 MEMB     22       POPC     H18T     HAL3     0.900000E-01   1.00800           0
      3007 MEMB     22       POPC     C33      CTL2    -0.180000       12.0110           0
      3008 MEMB     22       POPC     H3X      HAL2     0.900000E-01   1.00800           0
      3009 MEMB     22       POPC     H3Y      HAL2     0.900000E-01   1.00800           0
      3010 MEMB     22       POPC     C34      CTL2    -0.180000       12.0110           0
      3011 MEMB     22       POPC     H4X      HAL2     0.900000E-01   1.00800           0
      3012 MEMB     22       POPC     H4Y      HAL2     0.900000E-01   1.00800           0
      3013 MEMB     22       POPC     C35      CTL2    -0.180000       12.0110           0
      3014 MEMB     22       POPC     H5X      HAL2     0.900000E-01   1.00800           0
      3015 MEMB     22       POPC     H5Y      HAL2     0.900000E-01   1.00800           0
      3016 MEMB     22       POPC     C36      CTL2    -0.180000       12.0110           0
      3017 MEMB     22       POPC     H6X      HAL2     0.900000E-01   1.00800           0
      3018 MEMB     22       POPC     H6Y      HAL2     0.900000E-01   1.00800           0
      3019 MEMB     22       POPC     C37      CTL2    -0.180000       12.0110           0
      3020 MEMB     22       POPC     H7X      HAL2     0.900000E-01   1.00800           0
      3021 MEMB     22       POPC     H7Y      HAL2     0.900000E-01   1.00800           0
      3022 MEMB     22       POPC     C38      CTL2    -0.180000       12.0110           0
      3023 MEMB     22       POPC     H8X      HAL2     0.900000E-01   1.00800           0
      3024 MEMB     22       POPC     H8Y      HAL2     0.900000E-01   1.00800           0
      3025 MEMB     22       POPC     C39      CTL2    -0.180000       12.0110           0
      3026 MEMB     22       POPC     H9X      HAL2     0.900000E-01   1.00800           0
      3027 MEMB     22       POPC     H9Y      HAL2     0.900000E-01   1.00800           0
      3028 MEMB     22       POPC     C310     CTL2    -0.180000       12.0110           0
      3029 MEMB     22       POPC     H10X     HAL2     0.900000E-01   1.00800           0
      3030 MEMB     22       POPC     H10Y     HAL2     0.900000E-01   1.00800           0
      3031 MEMB     22       POPC     C311     CTL2    -0.180000       12.0110           0
      3032 MEMB     22       POPC     H11X     HAL2     0.900000E-01   1.00800           0
      3033 MEMB     22       POPC     H11Y     HAL2     0.900000E-01   1.00800           0
      3034 MEMB     22       POPC     C312     CTL2    -0.180000       12.0110           0
      3035 MEMB     22       POPC     H12X     HAL2     0.900000E-01   1.00800           0
      3036 MEMB     22       POPC     H12Y     HAL2     0.900000E-01   1.00800           0
      3037 MEMB     22       POPC     C313     CTL2    -0.180000       12.0110           0
      3038 MEMB     22       POPC     H13X     HAL2     0.900000E-01   1.00800           0
      3039 MEMB     22       POPC     H13Y     HAL2     0.900000E-01   1.00800           0
      3040 MEMB     22       POPC     C314     CTL2    -0.180000       12.0110           0
      3041 MEMB     22       POPC     H14X     HAL2     0.900000E-01   1.00800           0
      3042 MEMB     22       POPC     H14Y     HAL2     0.900000E-01   1.00800           0
      3043 MEMB     22       POPC     C315     CTL2    -0.180000       12.0110           0
      3044 MEMB     22       POPC     H15X     HAL2     0.900000E-01   1.00800           0
      3045 MEMB     22       POPC     H15Y     HAL2     0.900000E-01   1.00800           0
      3046 MEMB     22       POPC     C316     CTL3    -0.270000       12.0110           0
      3047 MEMB     22       POPC     H16X     HAL3     0.900000E-01   1.00800           0
      3048 MEMB     22       POPC     H16Y     HAL3     0.900000E-01   1.00800           0
      3049 MEMB     22       POPC     H16Z     HAL3     0.900000E-01   1.00800           0
      3050 MEMB     23       POPC     N        NTL     -0.600000       14.0070           0
      3051 MEMB     23       POPC     C12      CTL2    -0.100000       12.0110           0
      3052 MEMB     23       POPC     H12A     HL       0.250000       1.00800           0
      3053 MEMB     23       POPC     H12B     HL       0.250000       1.00800           0
      3054 MEMB     23       POPC     C13      CTL5    -0.350000       12.0110           0
      3055 MEMB     23       POPC     H13A     HL       0.250000       1.00800           0
      3056 MEMB     23       POPC     H13B     HL       0.250000       1.00800           0
      3057 MEMB     23       POPC     H13C     HL       0.250000       1.00800           0
      3058 MEMB     23       POPC     C14      CTL5    -0.350000       12.0110           0
      3059 MEMB     23       POPC     H14A     HL       0.250000       1.00800           0
      3060 MEMB     23       POPC     H14B     HL       0.250000       1.00800           0
      3061 MEMB     23       POPC     H14C     HL       0.250000       1.00800           0
      3062 MEMB     23       POPC     C15      CTL5    -0.350000       12.0110           0
      3063 MEMB     23       POPC     H15A     HL       0.250000       1.00800           0
      3064 MEMB     23       POPC     H15B     HL       0.250000       1.00800           0
      3065 MEMB     23       POPC     H15C     HL       0.250000       1.00800           0
      3066 MEMB     23       POPC     C11      CTL2    -0.800000E-01   12.0110           0
      3067 MEMB     23       POPC     H11A     HAL2     0.900000E-01   1.00800           0
      3068 MEMB     23       POPC     H11B     HAL2     0.900000E-01   1.00800           0
      3069 MEMB     23       POPC     P        PL       1.500000       30.9740           0
      3070 MEMB     23       POPC     O13      O2L     -0.780000       15.9994           0
      3071 MEMB     23       POPC     O14      O2L     -0.780000       15.9994           0
      3072 MEMB     23       POPC     O12      OSLP    -0.570000       15.9994           0
      3073 MEMB     23       POPC     O11      OSLP    -0.570000       15.9994           0
      3074 MEMB     23       POPC     C1       CTL2    -0.800000E-01   12.0110           0
      3075 MEMB     23       POPC     HA       HAL2     0.900000E-01   1.00800           0
      3076 MEMB     23       POPC     HB       HAL2     0.900000E-01   1.00800           0
      3077 MEMB     23       POPC     C2       CTL1     0.170000       12.0110           0
      3078 MEMB     23       POPC     HS       HAL1     0.900000E-01   1.00800           0
      3079 MEMB     23       POPC     O21      OSL     -0.490000       15.9994           0
      3080 MEMB     23       POPC     C21      CL       0.900000       12.0110           0
      3081 MEMB     23       POPC     O22      OBL     -0.630000       15.9994           0
      3082 MEMB     23       POPC     C22      CTL2    -0.220000       12.0110           0
      3083 MEMB     23       POPC     H2R      HAL2     0.900000E-01   1.00800           0
      3084 MEMB     23       POPC     H2S      HAL2     0.900000E-01   1.00800           0
      3085 MEMB     23       POPC     C3       CTL2     0.800000E-01   12.0110           0
      3086 MEMB     23       POPC     HX       HAL2     0.900000E-01   1.00800           0
      3087 MEMB     23       POPC     HY       HAL2     0.900000E-01   1.00800           0
      3088 MEMB     23       POPC     O31      OSL     -0.490000       15.9994           0
      3089 MEMB     23       POPC     C31      CL       0.900000       12.0110           0
      3090 MEMB     23       POPC     O32      OBL     -0.630000       15.9994           0
      3091 MEMB     23       POPC     C32      CTL2    -0.220000       12.0110           0
      3092 MEMB     23       POPC     H2X      HAL2     0.900000E-01   1.00800           0
      3093 MEMB     23       POPC     H2Y      HAL2     0.900000E-01   1.00800           0
      3094 MEMB     23       POPC     C23      CTL2    -0.180000       12.0110           0
      3095 MEMB     23       POPC     H3R      HAL2     0.900000E-01   1.00800           0
      3096 MEMB     23       POPC     H3S      HAL2     0.900000E-01   1.00800           0
      3097 MEMB     23       POPC     C24      CTL2    -0.180000       12.0110           0
      3098 MEMB     23       POPC     H4R      HAL2     0.900000E-01   1.00800           0
      3099 MEMB     23       POPC     H4S      HAL2     0.900000E-01   1.00800           0
      3100 MEMB     23       POPC     C25      CTL2    -0.180000       12.0110           0
      3101 MEMB     23       POPC     H5R      HAL2     0.900000E-01   1.00800           0
      3102 MEMB     23       POPC     H5S      HAL2     0.900000E-01   1.00800           0
      3103 MEMB     23       POPC     C26      CTL2    -0.180000       12.0110           0
      3104 MEMB     23       POPC     H6R      HAL2     0.900000E-01   1.00800           0
      3105 MEMB     23       POPC     H6S      HAL2     0.900000E-01   1.00800           0
      3106 MEMB     23       POPC     C27      CTL2    -0.180000       12.0110           0
      3107 MEMB     23       POPC     H7R      HAL2     0.900000E-01   1.00800           0
      3108 MEMB     23       POPC     H7S      HAL2     0.900000E-01   1.00800           0
      3109 MEMB     23       POPC     C28      CTL2    -0.180000       12.0110           0
      3110 MEMB     23       POPC     H8R      HAL2     0.900000E-01   1.00800           0
      3111 MEMB     23       POPC     H8S      HAL2     0.900000E-01   1.00800           0
      3112 MEMB     23       POPC     C29      CEL1    -0.150000       12.0110           0
      3113 MEMB     23       POPC     H91      HEL1     0.150000       1.00800           0
      3114 MEMB     23       POPC     C210     CEL1    -0.150000       12.0110           0
      3115 MEMB     23       POPC     H101     HEL1     0.150000       1.00800           0
      3116 MEMB     23       POPC     C211     CTL2    -0.180000       12.0110           0
      3117 MEMB     23       POPC     H11R     HAL2     0.900000E-01   1.00800           0
      3118 MEMB     23       POPC     H11S     HAL2     0.900000E-01   1.00800           0
      3119 MEMB     23       POPC     C212     CTL2    -0.180000       12.0110           0
      3120 MEMB     23       POPC     H12R     HAL2     0.900000E-01   1.00800           0
      3121 MEMB     23       POPC     H12S     HAL2     0.900000E-01   1.00800           0
      3122 MEMB     23       POPC     C213     CTL2    -0.180000       12.0110           0
      3123 MEMB     23       POPC     H13R     HAL2     0.900000E-01   1.00800           0
      3124 MEMB     23       POPC     H13S     HAL2     0.900000E-01   1.00800           0
      3125 MEMB     23       POPC     C214     CTL2    -0.180000       12.0110           0
      3126 MEMB     23       POPC     H14R     HAL2     0.900000E-01   1.00800           0
      3127 MEMB     23       POPC     H14S     HAL2     0.900000E-01   1.00800           0
      3128 MEMB     23       POPC     C215     CTL2    -0.180000       12.0110           0
      3129 MEMB     23       POPC     H15R     HAL2     0.900000E-01   1.00800           0
      3130 MEMB     23       POPC     H15S     HAL2     0.900000E-01   1.00800           0
      3131 MEMB     23       POPC     C216     CTL2    -0.180000       12.0110           0
      3132 MEMB     23       POPC     H16R     HAL2     0.900000E-01   1.00800           0
      3133 MEMB     23       POPC     H16S     HAL2     0.900000E-01   1.00800           0
      3134 MEMB     23       POPC     C217     CTL2    -0.180000       12.0110           0
      3135 MEMB     23       POPC     H17R     HAL2     0.900000E-01   1.00800           0
      3136 MEMB     23       POPC     H17S     HAL2     0.900000E-01   1.00800           0
      3137 MEMB     23       POPC     C218     CTL3    -0.270000       12.0110           0
      3138 MEMB     23       POPC     H18R     HAL3     0.900000E-01   1.00800           0
      3139 MEMB     23       POPC     H18S     HAL3     0.900000E-01   1.00800           0
      3140 MEMB     23       POPC     H18T     HAL3     0.900000E-01   1.00800           0
      3141 MEMB     23       POPC     C33      CTL2    -0.180000       12.0110           0
      3142 MEMB     23       POPC     H3X      HAL2     0.900000E-01   1.00800           0
      3143 MEMB     23       POPC     H3Y      HAL2     0.900000E-01   1.00800           0
      3144 MEMB     23       POPC     C34      CTL2    -0.180000       12.0110           0
      3145 MEMB     23       POPC     H4X      HAL2     0.900000E-01   1.00800           0
      3146 MEMB     23       POPC     H4Y      HAL2     0.900000E-01   1.00800           0
      3147 MEMB     23       POPC     C35      CTL2    -0.180000       12.0110           0
      3148 MEMB     23       POPC     H5X      HAL2     0.900000E-01   1.00800           0
      3149 MEMB     23       POPC     H5Y      HAL2     0.900000E-01   1.00800           0
      3150 MEMB     23       POPC     C36      CTL2    -0.180000       12.0110           0
      3151 MEMB     23       POPC     H6X      HAL2     0.900000E-01   1.00800           0
      3152 MEMB     23       POPC     H6Y      HAL2     0.900000E-01   1.00800           0
      3153 MEMB     23       POPC     C37      CTL2    -0.180000       12.0110           0
      3154 MEMB     23       POPC     H7X      HAL2     0.900000E-01   1.00800           0
      3155 MEMB     23       POPC     H7Y      HAL2     0.900000E-01   1.00800           0
      3156 MEMB     23       POPC     C38      CTL2    -0.180000       12.0110           0
      3157 MEMB     23       POPC     H8X      HAL2     0.900000E-01   1.00800           0
      3158 MEMB     23       POPC     H8Y      HAL2     0.900000E-01   1.00800           0
      3159 MEMB     23       POPC     C39      CTL2    -0.180000       12.0110           0
      3160 MEMB     23       POPC     H9X      HAL2     0.900000E-01   1.00800           0
      3161 MEMB     23       POPC     H9Y      HAL2     0.900000E-01   1.00800           0
      3162 MEMB     23       POPC     C310     CTL2    -0.180000       12.0110           0
      3163 MEMB     23       POPC     H10X     HAL2     0.900000E-01   1.00800           0
      3164 MEMB     23       POPC     H10Y     HAL2     0.900000E-01   1.00800           0
      3165 MEMB     23       POPC     C311     CTL2    -0.180000       12.0110           0
      3166 MEMB     23       POPC     H11X     HAL2     0.900000E-01   1.00800           0
      3167 MEMB     23       POPC     H11Y     HAL2     0.900000E-01   1.00800           0
      3168 MEMB     23       POPC     C312     CTL2    -0.180000       12.0110           0
      3169 MEMB     23       POPC     H12X     HAL2     0.900000E-01   1.00800           0
      3170 MEMB     23       POPC     H12Y     HAL2     0.900000E-01   1.00800           0
      3171 MEMB     23       POPC     C313     CTL2    -0.180000       12.0110           0
      3172 MEMB     23       POPC     H13X     HAL2     0.900000E-01   1.00800           0
      3173 MEMB     23       POPC     H13Y     HAL2     0.900000E-01   1.00800           0
      3174 MEMB     23       POPC     C314     CTL2    -0.180000       12.0110           0
      3175 MEMB     23       POPC     H14X     HAL2     0.900000E-01   1.00800           0
      3176 MEMB     23       POPC     H14Y     HAL2     0.900000E-01   1.00800           0
      3177 MEMB     23       POPC     C315     CTL2    -0.180000       12.0110           0
      3178 MEMB     23       POPC     H15X     HAL2     0.900000E-01   1.00800           0
      3179 MEMB     23       POPC     H15Y     HAL2     0.900000E-01   1.00800           0
      3180 MEMB     23       POPC     C316     CTL3    -0.270000       12.0110           0
      3181 MEMB     23       POPC     H16X     HAL3     0.900000E-01   1.00800           0
      3182 MEMB     23       POPC     H16Y     HAL3     0.900000E-01   1.00800           0
      3183 MEMB     23       POPC     H16Z     HAL3     0.900000E-01   1.00800           0
      3184 MEMB     24       POPS     N        NH3L    -0.300000       14.0070           0
      3185 MEMB     24       POPS     HN1      HCL      0.330000       1.00800           0
      3186 MEMB     24       POPS     HN2      HCL      0.330000       1.00800           0
      3187 MEMB     24       POPS     HN3      HCL      0.330000       1.00800           0
      3188 MEMB     24       POPS     C12      CTL1     0.210000       12.0110           0
      3189 MEMB     24       POPS     H12A     HBL      0.100000       1.00800           0
      3190 MEMB     24       POPS     C13      CCL      0.340000       12.0110           0
      3191 MEMB     24       POPS     O13A     OCL     -0.670000       15.9994           0
      3192 MEMB     24       POPS     O13B     OCL     -0.670000       15.9994           0
      3193 MEMB     24       POPS     C11      CTL2    -0.800000E-01   12.0110           0
      3194 MEMB     24       POPS     H11A     HAL2     0.900000E-01   1.00800           0
      3195 MEMB     24       POPS     H11B     HAL2     0.900000E-01   1.00800           0
      3196 MEMB     24       POPS     P        PL       1.500000       30.9740           0
      3197 MEMB     24       POPS     O13      O2L     -0.780000       15.9994           0
      3198 MEMB     24       POPS     O14      O2L     -0.780000       15.9994           0
      3199 MEMB     24       POPS     O12      OSLP    -0.570000       15.9994           0
      3200 MEMB     24       POPS     O11      OSLP    -0.570000       15.9994           0
      3201 MEMB     24       POPS     C1       CTL2    -0.800000E-01   12.0110           0
      3202 MEMB     24       POPS     HA       HAL2     0.900000E-01   1.00800           0
      3203 MEMB     24       POPS     HB       HAL2     0.900000E-01   1.00800           0
      3204 MEMB     24       POPS     C2       CTL1     0.170000       12.0110           0
      3205 MEMB     24       POPS     HS       HAL1     0.900000E-01   1.00800           0
      3206 MEMB     24       POPS     O21      OSL     -0.490000       15.9994           0
      3207 MEMB     24       POPS     C21      CL       0.900000       12.0110           0
      3208 MEMB     24       POPS     O22      OBL     -0.630000       15.9994           0
      3209 MEMB     24       POPS     C22      CTL2    -0.220000       12.0110           0
      3210 MEMB     24       POPS     H2R      HAL2     0.900000E-01   1.00800           0
      3211 MEMB     24       POPS     H2S      HAL2     0.900000E-01   1.00800           0
      3212 MEMB     24       POPS     C3       CTL2     0.800000E-01   12.0110           0
      3213 MEMB     24       POPS     HX       HAL2     0.900000E-01   1.00800           0
      3214 MEMB     24       POPS     HY       HAL2     0.900000E-01   1.00800           0
      3215 MEMB     24       POPS     O31      OSL     -0.490000       15.9994           0
      3216 MEMB     24       POPS     C31      CL       0.900000       12.0110           0
      3217 MEMB     24       POPS     O32      OBL     -0.630000       15.9994           0
      3218 MEMB     24       POPS     C32      CTL2    -0.220000       12.0110           0
      3219 MEMB     24       POPS     H2X      HAL2     0.900000E-01   1.00800           0
      3220 MEMB     24       POPS     H2Y      HAL2     0.900000E-01   1.00800           0
      3221 MEMB     24       POPS     C23      CTL2    -0.180000       12.0110           0
      3222 MEMB     24       POPS     H3R      HAL2     0.900000E-01   1.00800           0
      3223 MEMB     24       POPS     H3S      HAL2     0.900000E-01   1.00800           0
      3224 MEMB     24       POPS     C24      CTL2    -0.180000       12.0110           0
      3225 MEMB     24       POPS     H4R      HAL2     0.900000E-01   1.00800           0
      3226 MEMB     24       POPS     H4S      HAL2     0.900000E-01   1.00800           0
      3227 MEMB     24       POPS     C25      CTL2    -0.180000       12.0110           0
      3228 MEMB     24       POPS     H5R      HAL2     0.900000E-01   1.00800           0
      3229 MEMB     24       POPS     H5S      HAL2     0.900000E-01   1.00800           0
      3230 MEMB     24       POPS     C26      CTL2    -0.180000       12.0110           0
      3231 MEMB     24       POPS     H6R      HAL2     0.900000E-01   1.00800           0
      3232 MEMB     24       POPS     H6S      HAL2     0.900000E-01   1.00800           0
      3233 MEMB     24       POPS     C27      CTL2    -0.180000       12.0110           0
      3234 MEMB     24       POPS     H7R      HAL2     0.900000E-01   1.00800           0
      3235 MEMB     24       POPS     H7S      HAL2     0.900000E-01   1.00800           0
      3236 MEMB     24       POPS     C28      CTL2    -0.180000       12.0110           0
      3237 MEMB     24       POPS     H8R      HAL2     0.900000E-01   1.00800           0
      3238 MEMB     24       POPS     H8S      HAL2     0.900000E-01   1.00800           0
      3239 MEMB     24       POPS     C29      CEL1    -0.150000       12.0110           0
      3240 MEMB     24       POPS     H91      HEL1     0.150000       1.00800           0
      3241 MEMB     24       POPS     C210     CEL1    -0.150000       12.0110           0
      3242 MEMB     24       POPS     H101     HEL1     0.150000       1.00800           0
      3243 MEMB     24       POPS     C211     CTL2    -0.180000       12.0110           0
      3244 MEMB     24       POPS     H11R     HAL2     0.900000E-01   1.00800           0
      3245 MEMB     24       POPS     H11S     HAL2     0.900000E-01   1.00800           0
      3246 MEMB     24       POPS     C212     CTL2    -0.180000       12.0110           0
      3247 MEMB     24       POPS     H12R     HAL2     0.900000E-01   1.00800           0
      3248 MEMB     24       POPS     H12S     HAL2     0.900000E-01   1.00800           0
      3249 MEMB     24       POPS     C213     CTL2    -0.180000       12.0110           0
      3250 MEMB     24       POPS     H13R     HAL2     0.900000E-01   1.00800           0
      3251 MEMB     24       POPS     H13S     HAL2     0.900000E-01   1.00800           0
      3252 MEMB     24       POPS     C214     CTL2    -0.180000       12.0110           0
      3253 MEMB     24       POPS     H14R     HAL2     0.900000E-01   1.00800           0
      3254 MEMB     24       POPS     H14S     HAL2     0.900000E-01   1.00800           0
      3255 MEMB     24       POPS     C215     CTL2    -0.180000       12.0110           0
      3256 MEMB     24       POPS     H15R     HAL2     0.900000E-01   1.00800           0
      3257 MEMB     24       POPS     H15S     HAL2     0.900000E-01   1.00800           0
      3258 MEMB     24       POPS     C216     CTL2    -0.180000       12.0110           0
      3259 MEMB     24       POPS     H16R     HAL2     0.900000E-01   1.00800           0
      3260 MEMB     24       POPS     H16S     HAL2     0.900000E-01   1.00800           0
      3261 MEMB     24       POPS     C217     CTL2    -0.180000       12.0110           0
      3262 MEMB     24       POPS     H17R     HAL2     0.900000E-01   1.00800           0
      3263 MEMB     24       POPS     H17S     HAL2     0.900000E-01   1.00800           0
      3264 MEMB     24       POPS     C218     CTL3    -0.270000       12.0110           0
      3265 MEMB     24       POPS     H18R     HAL3     0.900000E-01   1.00800           0
      3266 MEMB     24       POPS     H18S     HAL3     0.900000E-01   1.00800           0
      3267 MEMB     24       POPS     H18T     HAL3     0.900000E-01   1.00800           0
      3268 MEMB     24       POPS     C33      CTL2    -0.180000       12.0110           0
      3269 MEMB     24       POPS     H3X      HAL2     0.900000E-01   1.00800           0
      3270 MEMB     24       POPS     H3Y      HAL2     0.900000E-01   1.00800           0
      3271 MEMB     24       POPS     C34      CTL2    -0.180000       12.0110           0
      3272 MEMB     24       POPS     H4X      HAL2     0.900000E-01   1.00800           0
      3273 MEMB     24       POPS     H4Y      HAL2     0.900000E-01   1.00800           0
      3274 MEMB     24       POPS     C35      CTL2    -0.180000       12.0110           0
      3275 MEMB     24       POPS     H5X      HAL2     0.900000E-01   1.00800           0
      3276 MEMB     24       POPS     H5Y      HAL2     0.900000E-01   1.00800           0
      3277 MEMB     24       POPS     C36      CTL2    -0.180000       12.0110           0
      3278 MEMB     24       POPS     H6X      HAL2     0.900000E-01   1.00800           0
      3279 MEMB     24       POPS     H6Y      HAL2     0.900000E-01   1.00800           0
      3280 MEMB     24       POPS     C37      CTL2    -0.180000       12.0110           0
      3281 MEMB     24       POPS     H7X      HAL2     0.900000E-01   1.00800           0
      3282 MEMB     24       POPS     H7Y      HAL2     0.900000E-01   1.00800           0
      3283 MEMB     24       POPS     C38      CTL2    -0.180000       12.0110           0
      3284 MEMB     24       POPS     H8X      HAL2     0.900000E-01   1.00800           0
      3285 MEMB     24       POPS     H8Y      HAL2     0.900000E-01   1.00800           0
      3286 MEMB     24       POPS     C39      CTL2    -0.180000       12.0110           0
      3287 MEMB     24       POPS     H9X      HAL2     0.900000E-01   1.00800           0
      3288 MEMB     24       POPS     H9Y      HAL2     0.900000E-01   1.00800           0
      3289 MEMB     24       POPS     C310     CTL2    -0.180000       12.0110           0
      3290 MEMB     24       POPS     H10X     HAL2     0.900000E-01   1.00800           0
      3291 MEMB     24       POPS     H10Y     HAL2     0.900000E-01   1.00800           0
      3292 MEMB     24       POPS     C311     CTL2    -0.180000       12.0110           0
      3293 MEMB     24       POPS     H11X     HAL2     0.900000E-01   1.00800           0
      3294 MEMB     24       POPS     H11Y     HAL2     0.900000E-01   1.00800           0
      3295 MEMB     24       POPS     C312     CTL2    -0.180000       12.0110           0
      3296 MEMB     24       POPS     H12X     HAL2     0.900000E-01   1.00800           0
      3297 MEMB     24       POPS     H12Y     HAL2     0.900000E-01   1.00800           0
      3298 MEMB     24       POPS     C313     CTL2    -0.180000       12.0110           0
      3299 MEMB     24       POPS     H13X     HAL2     0.900000E-01   1.00800           0
      3300 MEMB     24       POPS     H13Y     HAL2     0.900000E-01   1.00800           0
      3301 MEMB     24       POPS     C314     CTL2    -0.180000       12.0110           0
      3302 MEMB     24       POPS     H14X     HAL2     0.900000E-01   1.00800           0
      3303 MEMB     24       POPS     H14Y     HAL2     0.900000E-01   1.00800           0
      3304 MEMB     24       POPS     C315     CTL2    -0.180000       12.0110           0
      3305 MEMB     24       POPS     H15X     HAL2     0.900000E-01   1.00800           0
      3306 MEMB     24       POPS     H15Y     HAL2     0.900000E-01   1.00800           0
      3307 MEMB     24       POPS     C316     CTL3    -0.270000       12.0110           0
      3308 MEMB     24       POPS     H16X     HAL3     0.900000E-01   1.00800           0
      3309 MEMB     24       POPS     H16Y     HAL3     0.900000E-01   1.00800           0
      3310 MEMB     24       POPS     H16Z     HAL3     0.900000E-01   1.00800           0
      3311 MEMB     25       POPC     N        NTL     -0.600000       14.0070           0
      3312 MEMB     25       POPC     C12      CTL2    -0.100000       12.0110           0
      3313 MEMB     25       POPC     H12A     HL       0.250000       1.00800           0
      3314 MEMB     25       POPC     H12B     HL       0.250000       1.00800           0
      3315 MEMB     25       POPC     C13      CTL5    -0.350000       12.0110           0
      3316 MEMB     25       POPC     H13A     HL       0.250000       1.00800           0
      3317 MEMB     25       POPC     H13B     HL       0.250000       1.00800           0
      3318 MEMB     25       POPC     H13C     HL       0.250000       1.00800           0
      3319 MEMB     25       POPC     C14      CTL5    -0.350000       12.0110           0
      3320 MEMB     25       POPC     H14A     HL       0.250000       1.00800           0
      3321 MEMB     25       POPC     H14B     HL       0.250000       1.00800           0
      3322 MEMB     25       POPC     H14C     HL       0.250000       1.00800           0
      3323 MEMB     25       POPC     C15      CTL5    -0.350000       12.0110           0
      3324 MEMB     25       POPC     H15A     HL       0.250000       1.00800           0
      3325 MEMB     25       POPC     H15B     HL       0.250000       1.00800           0
      3326 MEMB     25       POPC     H15C     HL       0.250000       1.00800           0
      3327 MEMB     25       POPC     C11      CTL2    -0.800000E-01   12.0110           0
      3328 MEMB     25       POPC     H11A     HAL2     0.900000E-01   1.00800           0
      3329 MEMB     25       POPC     H11B     HAL2     0.900000E-01   1.00800           0
      3330 MEMB     25       POPC     P        PL       1.500000       30.9740           0
      3331 MEMB     25       POPC     O13      O2L     -0.780000       15.9994           0
      3332 MEMB     25       POPC     O14      O2L     -0.780000       15.9994           0
      3333 MEMB     25       POPC     O12      OSLP    -0.570000       15.9994           0
      3334 MEMB     25       POPC     O11      OSLP    -0.570000       15.9994           0
      3335 MEMB     25       POPC     C1       CTL2    -0.800000E-01   12.0110           0
      3336 MEMB     25       POPC     HA       HAL2     0.900000E-01   1.00800           0
      3337 MEMB     25       POPC     HB       HAL2     0.900000E-01   1.00800           0
      3338 MEMB     25       POPC     C2       CTL1     0.170000       12.0110           0
      3339 MEMB     25       POPC     HS       HAL1     0.900000E-01   1.00800           0
      3340 MEMB     25       POPC     O21      OSL     -0.490000       15.9994           0
      3341 MEMB     25       POPC     C21      CL       0.900000       12.0110           0
      3342 MEMB     25       POPC     O22      OBL     -0.630000       15.9994           0
      3343 MEMB     25       POPC     C22      CTL2    -0.220000       12.0110           0
      3344 MEMB     25       POPC     H2R      HAL2     0.900000E-01   1.00800           0
      3345 MEMB     25       POPC     H2S      HAL2     0.900000E-01   1.00800           0
      3346 MEMB     25       POPC     C3       CTL2     0.800000E-01   12.0110           0
      3347 MEMB     25       POPC     HX       HAL2     0.900000E-01   1.00800           0
      3348 MEMB     25       POPC     HY       HAL2     0.900000E-01   1.00800           0
      3349 MEMB     25       POPC     O31      OSL     -0.490000       15.9994           0
      3350 MEMB     25       POPC     C31      CL       0.900000       12.0110           0
      3351 MEMB     25       POPC     O32      OBL     -0.630000       15.9994           0
      3352 MEMB     25       POPC     C32      CTL2    -0.220000       12.0110           0
      3353 MEMB     25       POPC     H2X      HAL2     0.900000E-01   1.00800           0
      3354 MEMB     25       POPC     H2Y      HAL2     0.900000E-01   1.00800           0
      3355 MEMB     25       POPC     C23      CTL2    -0.180000       12.0110           0
      3356 MEMB     25       POPC     H3R      HAL2     0.900000E-01   1.00800           0
      3357 MEMB     25       POPC     H3S      HAL2     0.900000E-01   1.00800           0
      3358 MEMB     25       POPC     C24      CTL2    -0.180000       12.0110           0
      3359 MEMB     25       POPC     H4R      HAL2     0.900000E-01   1.00800           0
      3360 MEMB     25       POPC     H4S      HAL2     0.900000E-01   1.00800           0
      3361 MEMB     25       POPC     C25      CTL2    -0.180000       12.0110           0
      3362 MEMB     25       POPC     H5R      HAL2     0.900000E-01   1.00800           0
      3363 MEMB     25       POPC     H5S      HAL2     0.900000E-01   1.00800           0
      3364 MEMB     25       POPC     C26      CTL2    -0.180000       12.0110           0
      3365 MEMB     25       POPC     H6R      HAL2     0.900000E-01   1.00800           0
      3366 MEMB     25       POPC     H6S      HAL2     0.900000E-01   1.00800           0
      3367 MEMB     25       POPC     C27      CTL2    -0.180000       12.0110           0
      3368 MEMB     25       POPC     H7R      HAL2     0.900000E-01   1.00800           0
      3369 MEMB     25       POPC     H7S      HAL2     0.900000E-01   1.00800           0
      3370 MEMB     25       POPC     C28      CTL2    -0.180000       12.0110           0
      3371 MEMB     25       POPC     H8R      HAL2     0.900000E-01   1.00800           0
      3372 MEMB     25       POPC     H8S      HAL2     0.900000E-01   1.00800           0
      3373 MEMB     25       POPC     C29      CEL1    -0.150000       12.0110           0
      3374 MEMB     25       POPC     H91      HEL1     0.150000       1.00800           0
      3375 MEMB     25       POPC     C210     CEL1    -0.150000       12.0110           0
      3376 MEMB     25       POPC     H101     HEL1     0.150000       1.00800           0
      3377 MEMB     25       POPC     C211     CTL2    -0.180000       12.0110           0
      3378 MEMB     25       POPC     H11R     HAL2     0.900000E-01   1.00800           0
      3379 MEMB     25       POPC     H11S     HAL2     0.900000E-01   1.00800           0
      3380 MEMB     25       POPC     C212     CTL2    -0.180000       12.0110           0
      3381 MEMB     25       POPC     H12R     HAL2     0.900000E-01   1.00800           0
      3382 MEMB     25       POPC     H12S     HAL2     0.900000E-01   1.00800           0
      3383 MEMB     25       POPC     C213     CTL2    -0.180000       12.0110           0
      3384 MEMB     25       POPC     H13R     HAL2     0.900000E-01   1.00800           0
      3385 MEMB     25       POPC     H13S     HAL2     0.900000E-01   1.00800           0
      3386 MEMB     25       POPC     C214     CTL2    -0.180000       12.0110           0
      3387 MEMB     25       POPC     H14R     HAL2     0.900000E-01   1.00800           0
      3388 MEMB     25       POPC     H14S     HAL2     0.900000E-01   1.00800           0
      3389 MEMB     25       POPC     C215     CTL2    -0.180000       12.0110           0
      3390 MEMB     25       POPC     H15R     HAL2     0.900000E-01   1.00800           0
      3391 MEMB     25       POPC     H15S     HAL2     0.900000E-01   1.00800           0
      3392 MEMB     25       POPC     C216     CTL2    -0.180000       12.0110           0
      3393 MEMB     25       POPC     H16R     HAL2     0.900000E-01   1.00800           0
      3394 MEMB     25       POPC     H16S     HAL2     0.900000E-01   1.00800           0
      3395 MEMB     25       POPC     C217     CTL2    -0.180000       12.0110           0
      3396 MEMB     25       POPC     H17R     HAL2     0.900000E-01   1.00800           0
      3397 MEMB     25       POPC     H17S     HAL2     0.900000E-01   1.00800           0
      3398 MEMB     25       POPC     C218     CTL3    -0.270000       12.0110           0
      3399 MEMB     25       POPC     H18R     HAL3     0.900000E-01   1.00800           0
      3400 MEMB     25       POPC     H18S     HAL3     0.900000E-01   1.00800           0
      3401 MEMB     25       POPC     H18T     HAL3     0.900000E-01   1.00800           0
      3402 MEMB     25       POPC     C33      CTL2    -0.180000       12.0110           0
      3403 MEMB     25       POPC     H3X      HAL2     0.900000E-01   1.00800           0
      3404 MEMB     25       POPC     H3Y      HAL2     0.900000E-01   1.00800           0
      3405 MEMB     25       POPC     C34      CTL2    -0.180000       12.0110           0
      3406 MEMB     25       POPC     H4X      HAL2     0.900000E-01   1.00800           0
      3407 MEMB     25       POPC     H4Y      HAL2     0.900000E-01   1.00800           0
      3408 MEMB     25       POPC     C35      CTL2    -0.180000       12.0110           0
      3409 MEMB     25       POPC     H5X      HAL2     0.900000E-01   1.00800           0
      3410 MEMB     25       POPC     H5Y      HAL2     0.900000E-01   1.00800           0
      3411 MEMB     25       POPC     C36      CTL2    -0.180000       12.0110           0
      3412 MEMB     25       POPC     H6X      HAL2     0.900000E-01   1.00800           0
      3413 MEMB     25       POPC     H6Y      HAL2     0.900000E-01   1.00800           0
      3414 MEMB     25       POPC     C37      CTL2    -0.180000       12.0110           0
      3415 MEMB     25       POPC     H7X      HAL2     0.900000E-01   1.00800           0
      3416 MEMB     25       POPC     H7Y      HAL2     0.900000E-01   1.00800           0
      3417 MEMB     25       POPC     C38      CTL2    -0.180000       12.0110           0
      3418 MEMB     25       POPC     H8X      HAL2     0.900000E-01   1.00800           0
      3419 MEMB     25       POPC     H8Y      HAL2     0.900000E-01   1.00800           0
      3420 MEMB     25       POPC     C39      CTL2    -0.180000       12.0110           0
      3421 MEMB     25       POPC     H9X      HAL2     0.900000E-01   1.00800           0
      3422 MEMB     25       POPC     H9Y      HAL2     0.900000E-01   1.00800           0
      3423 MEMB     25       POPC     C310     CTL2    -0.180000       12.0110           0
      3424 MEMB     25       POPC     H10X     HAL2     0.900000E-01   1.00800           0
      3425 MEMB     25       POPC     H10Y     HAL2     0.900000E-01   1.00800           0
      3426 MEMB     25       POPC     C311     CTL2    -0.180000       12.0110           0
      3427 MEMB     25       POPC     H11X     HAL2     0.900000E-01   1.00800           0
      3428 MEMB     25       POPC     H11Y     HAL2     0.900000E-01   1.00800           0
      3429 MEMB     25       POPC     C312     CTL2    -0.180000       12.0110           0
      3430 MEMB     25       POPC     H12X     HAL2     0.900000E-01   1.00800           0
      3431 MEMB     25       POPC     H12Y     HAL2     0.900000E-01   1.00800           0
      3432 MEMB     25       POPC     C313     CTL2    -0.180000       12.0110           0
      3433 MEMB     25       POPC     H13X     HAL2     0.900000E-01   1.00800           0
      3434 MEMB     25       POPC     H13Y     HAL2     0.900000E-01   1.00800           0
      3435 MEMB     25       POPC     C314     CTL2    -0.180000       12.0110           0
      3436 MEMB     25       POPC     H14X     HAL2     0.900000E-01   1.00800           0
      3437 MEMB     25       POPC     H14Y     HAL2     0.900000E-01   1.00800           0
      3438 MEMB     25       POPC     C315     CTL2    -0.180000       12.0110           0
      3439 MEMB     25       POPC     H15X     HAL2     0.900000E-01   1.00800           0
      3440 MEMB     25       POPC     H15Y     HAL2     0.900000E-01   1.00800           0
      3441 MEMB     25       POPC     C316     CTL3    -0.270000       12.0110           0
      3442 MEMB     25       POPC     H16X     HAL3     0.900000E-01   1.00800           0
      3443 MEMB     25       POPC     H16Y     HAL3     0.900000E-01   1.00800           0
      3444 MEMB     25       POPC     H16Z     HAL3     0.900000E-01   1.00800           0
      3445 MEMB     26       POPC     N        NTL     -0.600000       14.0070           0
      3446 MEMB     26       POPC     C12      CTL2    -0.100000       12.0110           0
      3447 MEMB     26       POPC     H12A     HL       0.250000       1.00800           0
      3448 MEMB     26       POPC     H12B     HL       0.250000       1.00800           0
      3449 MEMB     26       POPC     C13      CTL5    -0.350000       12.0110           0
      3450 MEMB     26       POPC     H13A     HL       0.250000       1.00800           0
      3451 MEMB     26       POPC     H13B     HL       0.250000       1.00800           0
      3452 MEMB     26       POPC     H13C     HL       0.250000       1.00800           0
      3453 MEMB     26       POPC     C14      CTL5    -0.350000       12.0110           0
      3454 MEMB     26       POPC     H14A     HL       0.250000       1.00800           0
      3455 MEMB     26       POPC     H14B     HL       0.250000       1.00800           0
      3456 MEMB     26       POPC     H14C     HL       0.250000       1.00800           0
      3457 MEMB     26       POPC     C15      CTL5    -0.350000       12.0110           0
      3458 MEMB     26       POPC     H15A     HL       0.250000       1.00800           0
      3459 MEMB     26       POPC     H15B     HL       0.250000       1.00800           0
      3460 MEMB     26       POPC     H15C     HL       0.250000       1.00800           0
      3461 MEMB     26       POPC     C11      CTL2    -0.800000E-01   12.0110           0
      3462 MEMB     26       POPC     H11A     HAL2     0.900000E-01   1.00800           0
      3463 MEMB     26       POPC     H11B     HAL2     0.900000E-01   1.00800           0
      3464 MEMB     26       POPC     P        PL       1.500000       30.9740           0
      3465 MEMB     26       POPC     O13      O2L     -0.780000       15.9994           0
      3466 MEMB     26       POPC     O14      O2L     -0.780000       15.9994           0
      3467 MEMB     26       POPC     O12      OSLP    -0.570000       15.9994           0
      3468 MEMB     26       POPC     O11      OSLP    -0.570000       15.9994           0
      3469 MEMB     26       POPC     C1       CTL2    -0.800000E-01   12.0110           0
      3470 MEMB     26       POPC     HA       HAL2     0.900000E-01   1.00800           0
      3471 MEMB     26       POPC     HB       HAL2     0.900000E-01   1.00800           0
      3472 MEMB     26       POPC     C2       CTL1     0.170000       12.0110           0
      3473 MEMB     26       POPC     HS       HAL1     0.900000E-01   1.00800           0
      3474 MEMB     26       POPC     O21      OSL     -0.490000       15.9994           0
      3475 MEMB     26       POPC     C21      CL       0.900000       12.0110           0
      3476 MEMB     26       POPC     O22      OBL     -0.630000       15.9994           0
      3477 MEMB     26       POPC     C22      CTL2    -0.220000       12.0110           0
      3478 MEMB     26       POPC     H2R      HAL2     0.900000E-01   1.00800           0
      3479 MEMB     26       POPC     H2S      HAL2     0.900000E-01   1.00800           0
      3480 MEMB     26       POPC     C3       CTL2     0.800000E-01   12.0110           0
      3481 MEMB     26       POPC     HX       HAL2     0.900000E-01   1.00800           0
      3482 MEMB     26       POPC     HY       HAL2     0.900000E-01   1.00800           0
      3483 MEMB     26       POPC     O31      OSL     -0.490000       15.9994           0
      3484 MEMB     26       POPC     C31      CL       0.900000       12.0110           0
      3485 MEMB     26       POPC     O32      OBL     -0.630000       15.9994           0
      3486 MEMB     26       POPC     C32      CTL2    -0.220000       12.0110           0
      3487 MEMB     26       POPC     H2X      HAL2     0.900000E-01   1.00800           0
      3488 MEMB     26       POPC     H2Y      HAL2     0.900000E-01   1.00800           0
      3489 MEMB     26       POPC     C23      CTL2    -0.180000       12.0110           0
      3490 MEMB     26       POPC     H3R      HAL2     0.900000E-01   1.00800           0
      3491 MEMB     26       POPC     H3S      HAL2     0.900000E-01   1.00800           0
      3492 MEMB     26       POPC     C24      CTL2    -0.180000       12.0110           0
      3493 MEMB     26       POPC     H4R      HAL2     0.900000E-01   1.00800           0
      3494 MEMB     26       POPC     H4S      HAL2     0.900000E-01   1.00800           0
      3495 MEMB     26       POPC     C25      CTL2    -0.180000       12.0110           0
      3496 MEMB     26       POPC     H5R      HAL2     0.900000E-01   1.00800           0
      3497 MEMB     26       POPC     H5S      HAL2     0.900000E-01   1.00800           0
      3498 MEMB     26       POPC     C26      CTL2    -0.180000       12.0110           0
      3499 MEMB     26       POPC     H6R      HAL2     0.900000E-01   1.00800           0
      3500 MEMB     26       POPC     H6S      HAL2     0.900000E-01   1.00800           0
      3501 MEMB     26       POPC     C27      CTL2    -0.180000       12.0110           0
      3502 MEMB     26       POPC     H7R      HAL2     0.900000E-01   1.00800           0
      3503 MEMB     26       POPC     H7S      HAL2     0.900000E-01   1.00800           0
      3504 MEMB     26       POPC     C28      CTL2    -0.180000       12.0110           0
      3505 MEMB     26       POPC     H8R      HAL2     0.900000E-01   1.00800           0
      3506 MEMB     26       POPC     H8S      HAL2     0.900000E-01   1.00800           0
      3507 MEMB     26       POPC     C29      CEL1    -0.150000       12.0110           0
      3508 MEMB     26       POPC     H91      HEL1     0.150000       1.00800           0
      3509 MEMB     26       POPC     C210     CEL1    -0.150000       12.0110           0
      3510 MEMB     26       POPC     H101     HEL1     0.150000       1.00800           0
      3511 MEMB     26       POPC     C211     CTL2    -0.180000       12.0110           0
      3512 MEMB     26       POPC     H11R     HAL2     0.900000E-01   1.00800           0
      3513 MEMB     26       POPC     H11S     HAL2     0.900000E-01   1.00800           0
      3514 MEMB     26       POPC     C212     CTL2    -0.180000       12.0110           0
      3515 MEMB     26       POPC     H12R     HAL2     0.900000E-01   1.00800           0
      3516 MEMB     26       POPC     H12S     HAL2     0.900000E-01   1.00800           0
      3517 MEMB     26       POPC     C213     CTL2    -0.180000       12.0110           0
      3518 MEMB     26       POPC     H13R     HAL2     0.900000E-01   1.00800           0
      3519 MEMB     26       POPC     H13S     HAL2     0.900000E-01   1.00800           0
      3520 MEMB     26       POPC     C214     CTL2    -0.180000       12.0110           0
      3521 MEMB     26       POPC     H14R     HAL2     0.900000E-01   1.00800           0
      3522 MEMB     26       POPC     H14S     HAL2     0.900000E-01   1.00800           0
      3523 MEMB     26       POPC     C215     CTL2    -0.180000       12.0110           0
      3524 MEMB     26       POPC     H15R     HAL2     0.900000E-01   1.00800           0
      3525 MEMB     26       POPC     H15S     HAL2     0.900000E-01   1.00800           0
      3526 MEMB     26       POPC     C216     CTL2    -0.180000       12.0110           0
      3527 MEMB     26       POPC     H16R     HAL2     0.900000E-01   1.00800           0
      3528 MEMB     26       POPC     H16S     HAL2     0.900000E-01   1.00800           0
      3529 MEMB     26       POPC     C217     CTL2    -0.180000       12.0110           0
      3530 MEMB     26       POPC     H17R     HAL2     0.900000E-01   1.00800           0
      3531 MEMB     26       POPC     H17S     HAL2     0.900000E-01   1.00800           0
      3532 MEMB     26       POPC     C218     CTL3    -0.270000       12.0110           0
      3533 MEMB     26       POPC     H18R     HAL3     0.900000E-01   1.00800           0
      3534 MEMB     26       POPC     H18S     HAL3     0.900000E-01   1.00800           0
      3535 MEMB     26       POPC     H18T     HAL3     0.900000E-01   1.00800           0
      3536 MEMB     26       POPC     C33      CTL2    -0.180000       12.0110           0
      3537 MEMB     26       POPC     H3X      HAL2     0.900000E-01   1.00800           0
      3538 MEMB     26       POPC     H3Y      HAL2     0.900000E-01   1.00800           0
      3539 MEMB     26       POPC     C34      CTL2    -0.180000       12.0110           0
      3540 MEMB     26       POPC     H4X      HAL2     0.900000E-01   1.00800           0
      3541 MEMB     26       POPC     H4Y      HAL2     0.900000E-01   1.00800           0
      3542 MEMB     26       POPC     C35      CTL2    -0.180000       12.0110           0
      3543 MEMB     26       POPC     H5X      HAL2     0.900000E-01   1.00800           0
      3544 MEMB     26       POPC     H5Y      HAL2     0.900000E-01   1.00800           0
      3545 MEMB     26       POPC     C36      CTL2    -0.180000       12.0110           0
      3546 MEMB     26       POPC     H6X      HAL2     0.900000E-01   1.00800           0
      3547 MEMB     26       POPC     H6Y      HAL2     0.900000E-01   1.00800           0
      3548 MEMB     26       POPC     C37      CTL2    -0.180000       12.0110           0
      3549 MEMB     26       POPC     H7X      HAL2     0.900000E-01   1.00800           0
      3550 MEMB     26       POPC     H7Y      HAL2     0.900000E-01   1.00800           0
      3551 MEMB     26       POPC     C38      CTL2    -0.180000       12.0110           0
      3552 MEMB     26       POPC     H8X      HAL2     0.900000E-01   1.00800           0
      3553 MEMB     26       POPC     H8Y      HAL2     0.900000E-01   1.00800           0
      3554 MEMB     26       POPC     C39      CTL2    -0.180000       12.0110           0
      3555 MEMB     26       POPC     H9X      HAL2     0.900000E-01   1.00800           0
      3556 MEMB     26       POPC     H9Y      HAL2     0.900000E-01   1.00800           0
      3557 MEMB     26       POPC     C310     CTL2    -0.180000       12.0110           0
      3558 MEMB     26       POPC     H10X     HAL2     0.900000E-01   1.00800           0
      3559 MEMB     26       POPC     H10Y     HAL2     0.900000E-01   1.00800           0
      3560 MEMB     26       POPC     C311     CTL2    -0.180000       12.0110           0
      3561 MEMB     26       POPC     H11X     HAL2     0.900000E-01   1.00800           0
      3562 MEMB     26       POPC     H11Y     HAL2     0.900000E-01   1.00800           0
      3563 MEMB     26       POPC     C312     CTL2    -0.180000       12.0110           0
      3564 MEMB     26       POPC     H12X     HAL2     0.900000E-01   1.00800           0
      3565 MEMB     26       POPC     H12Y     HAL2     0.900000E-01   1.00800           0
      3566 MEMB     26       POPC     C313     CTL2    -0.180000       12.0110           0
      3567 MEMB     26       POPC     H13X     HAL2     0.900000E-01   1.00800           0
      3568 MEMB     26       POPC     H13Y     HAL2     0.900000E-01   1.00800           0
      3569 MEMB     26       POPC     C314     CTL2    -0.180000       12.0110           0
      3570 MEMB     26       POPC     H14X     HAL2     0.900000E-01   1.00800           0
      3571 MEMB     26       POPC     H14Y     HAL2     0.900000E-01   1.00800           0
      3572 MEMB     26       POPC     C315     CTL2    -0.180000       12.0110           0
      3573 MEMB     26       POPC     H15X     HAL2     0.900000E-01   1.00800           0
      3574 MEMB     26       POPC     H15Y     HAL2     0.900000E-01   1.00800           0
      3575 MEMB     26       POPC     C316     CTL3    -0.270000       12.0110           0
      3576 MEMB     26       POPC     H16X     HAL3     0.900000E-01   1.00800           0
      3577 MEMB     26       POPC     H16Y     HAL3     0.900000E-01   1.00800           0
      3578 MEMB     26       POPC     H16Z     HAL3     0.900000E-01   1.00800           0
      3579 MEMB     27       POPC     N        NTL     -0.600000       14.0070           0
      3580 MEMB     27       POPC     C12      CTL2    -0.100000       12.0110           0
      3581 MEMB     27       POPC     H12A     HL       0.250000       1.00800           0
      3582 MEMB     27       POPC     H12B     HL       0.250000       1.00800           0
      3583 MEMB     27       POPC     C13      CTL5    -0.350000       12.0110           0
      3584 MEMB     27       POPC     H13A     HL       0.250000       1.00800           0
      3585 MEMB     27       POPC     H13B     HL       0.250000       1.00800           0
      3586 MEMB     27       POPC     H13C     HL       0.250000       1.00800           0
      3587 MEMB     27       POPC     C14      CTL5    -0.350000       12.0110           0
      3588 MEMB     27       POPC     H14A     HL       0.250000       1.00800           0
      3589 MEMB     27       POPC     H14B     HL       0.250000       1.00800           0
      3590 MEMB     27       POPC     H14C     HL       0.250000       1.00800           0
      3591 MEMB     27       POPC     C15      CTL5    -0.350000       12.0110           0
      3592 MEMB     27       POPC     H15A     HL       0.250000       1.00800           0
      3593 MEMB     27       POPC     H15B     HL       0.250000       1.00800           0
      3594 MEMB     27       POPC     H15C     HL       0.250000       1.00800           0
      3595 MEMB     27       POPC     C11      CTL2    -0.800000E-01   12.0110           0
      3596 MEMB     27       POPC     H11A     HAL2     0.900000E-01   1.00800           0
      3597 MEMB     27       POPC     H11B     HAL2     0.900000E-01   1.00800           0
      3598 MEMB     27       POPC     P        PL       1.500000       30.9740           0
      3599 MEMB     27       POPC     O13      O2L     -0.780000       15.9994           0
      3600 MEMB     27       POPC     O14      O2L     -0.780000       15.9994           0
      3601 MEMB     27       POPC     O12      OSLP    -0.570000       15.9994           0
      3602 MEMB     27       POPC     O11      OSLP    -0.570000       15.9994           0
      3603 MEMB     27       POPC     C1       CTL2    -0.800000E-01   12.0110           0
      3604 MEMB     27       POPC     HA       HAL2     0.900000E-01   1.00800           0
      3605 MEMB     27       POPC     HB       HAL2     0.900000E-01   1.00800           0
      3606 MEMB     27       POPC     C2       CTL1     0.170000       12.0110           0
      3607 MEMB     27       POPC     HS       HAL1     0.900000E-01   1.00800           0
      3608 MEMB     27       POPC     O21      OSL     -0.490000       15.9994           0
      3609 MEMB     27       POPC     C21      CL       0.900000       12.0110           0
      3610 MEMB     27       POPC     O22      OBL     -0.630000       15.9994           0
      3611 MEMB     27       POPC     C22      CTL2    -0.220000       12.0110           0
      3612 MEMB     27       POPC     H2R      HAL2     0.900000E-01   1.00800           0
      3613 MEMB     27       POPC     H2S      HAL2     0.900000E-01   1.00800           0
      3614 MEMB     27       POPC     C3       CTL2     0.800000E-01   12.0110           0
      3615 MEMB     27       POPC     HX       HAL2     0.900000E-01   1.00800           0
      3616 MEMB     27       POPC     HY       HAL2     0.900000E-01   1.00800           0
      3617 MEMB     27       POPC     O31      OSL     -0.490000       15.9994           0
      3618 MEMB     27       POPC     C31      CL       0.900000       12.0110           0
      3619 MEMB     27       POPC     O32      OBL     -0.630000       15.9994           0
      3620 MEMB     27       POPC     C32      CTL2    -0.220000       12.0110           0
      3621 MEMB     27       POPC     H2X      HAL2     0.900000E-01   1.00800           0
      3622 MEMB     27       POPC     H2Y      HAL2     0.900000E-01   1.00800           0
      3623 MEMB     27       POPC     C23      CTL2    -0.180000       12.0110           0
      3624 MEMB     27       POPC     H3R      HAL2     0.900000E-01   1.00800           0
      3625 MEMB     27       POPC     H3S      HAL2     0.900000E-01   1.00800           0
      3626 MEMB     27       POPC     C24      CTL2    -0.180000       12.0110           0
      3627 MEMB     27       POPC     H4R      HAL2     0.900000E-01   1.00800           0
      3628 MEMB     27       POPC     H4S      HAL2     0.900000E-01   1.00800           0
      3629 MEMB     27       POPC     C25      CTL2    -0.180000       12.0110           0
      3630 MEMB     27       POPC     H5R      HAL2     0.900000E-01   1.00800           0
      3631 MEMB     27       POPC     H5S      HAL2     0.900000E-01   1.00800           0
      3632 MEMB     27       POPC     C26      CTL2    -0.180000       12.0110           0
      3633 MEMB     27       POPC     H6R      HAL2     0.900000E-01   1.00800           0
      3634 MEMB     27       POPC     H6S      HAL2     0.900000E-01   1.00800           0
      3635 MEMB     27       POPC     C27      CTL2    -0.180000       12.0110           0
      3636 MEMB     27       POPC     H7R      HAL2     0.900000E-01   1.00800           0
      3637 MEMB     27       POPC     H7S      HAL2     0.900000E-01   1.00800           0
      3638 MEMB     27       POPC     C28      CTL2    -0.180000       12.0110           0
      3639 MEMB     27       POPC     H8R      HAL2     0.900000E-01   1.00800           0
      3640 MEMB     27       POPC     H8S      HAL2     0.900000E-01   1.00800           0
      3641 MEMB     27       POPC     C29      CEL1    -0.150000       12.0110           0
      3642 MEMB     27       POPC     H91      HEL1     0.150000       1.00800           0
      3643 MEMB     27       POPC     C210     CEL1    -0.150000       12.0110           0
      3644 MEMB     27       POPC     H101     HEL1     0.150000       1.00800           0
      3645 MEMB     27       POPC     C211     CTL2    -0.180000       12.0110           0
      3646 MEMB     27       POPC     H11R     HAL2     0.900000E-01   1.00800           0
      3647 MEMB     27       POPC     H11S     HAL2     0.900000E-01   1.00800           0
      3648 MEMB     27       POPC     C212     CTL2    -0.180000       12.0110           0
      3649 MEMB     27       POPC     H12R     HAL2     0.900000E-01   1.00800           0
      3650 MEMB     27       POPC     H12S     HAL2     0.900000E-01   1.00800           0
      3651 MEMB     27       POPC     C213     CTL2    -0.180000       12.0110           0
      3652 MEMB     27       POPC     H13R     HAL2     0.900000E-01   1.00800           0
      3653 MEMB     27       POPC     H13S     HAL2     0.900000E-01   1.00800           0
      3654 MEMB     27       POPC     C214     CTL2    -0.180000       12.0110           0
      3655 MEMB     27       POPC     H14R     HAL2     0.900000E-01   1.00800           0
      3656 MEMB     27       POPC     H14S     HAL2     0.900000E-01   1.00800           0
      3657 MEMB     27       POPC     C215     CTL2    -0.180000       12.0110           0
      3658 MEMB     27       POPC     H15R     HAL2     0.900000E-01   1.00800           0
      3659 MEMB     27       POPC     H15S     HAL2     0.900000E-01   1.00800           0
      3660 MEMB     27       POPC     C216     CTL2    -0.180000       12.0110           0
      3661 MEMB     27       POPC     H16R     HAL2     0.900000E-01   1.00800           0
      3662 MEMB     27       POPC     H16S     HAL2     0.900000E-01   1.00800           0
      3663 MEMB     27       POPC     C217     CTL2    -0.180000       12.0110           0
      3664 MEMB     27       POPC     H17R     HAL2     0.900000E-01   1.00800           0
      3665 MEMB     27       POPC     H17S     HAL2     0.900000E-01   1.00800           0
      3666 MEMB     27       POPC     C218     CTL3    -0.270000       12.0110           0
      3667 MEMB     27       POPC     H18R     HAL3     0.900000E-01   1.00800           0
      3668 MEMB     27       POPC     H18S     HAL3     0.900000E-01   1.00800           0
      3669 MEMB     27       POPC     H18T     HAL3     0.900000E-01   1.00800           0
      3670 MEMB     27       POPC     C33      CTL2    -0.180000       12.0110           0
      3671 MEMB     27       POPC     H3X      HAL2     0.900000E-01   1.00800           0
      3672 MEMB     27       POPC     H3Y      HAL2     0.900000E-01   1.00800           0
      3673 MEMB     27       POPC     C34      CTL2    -0.180000       12.0110           0
      3674 MEMB     27       POPC     H4X      HAL2     0.900000E-01   1.00800           0
      3675 MEMB     27       POPC     H4Y      HAL2     0.900000E-01   1.00800           0
      3676 MEMB     27       POPC     C35      CTL2    -0.180000       12.0110           0
      3677 MEMB     27       POPC     H5X      HAL2     0.900000E-01   1.00800           0
      3678 MEMB     27       POPC     H5Y      HAL2     0.900000E-01   1.00800           0
      3679 MEMB     27       POPC     C36      CTL2    -0.180000       12.0110           0
      3680 MEMB     27       POPC     H6X      HAL2     0.900000E-01   1.00800           0
      3681 MEMB     27       POPC     H6Y      HAL2     0.900000E-01   1.00800           0
      3682 MEMB     27       POPC     C37      CTL2    -0.180000       12.0110           0
      3683 MEMB     27       POPC     H7X      HAL2     0.900000E-01   1.00800           0
      3684 MEMB     27       POPC     H7Y      HAL2     0.900000E-01   1.00800           0
      3685 MEMB     27       POPC     C38      CTL2    -0.180000       12.0110           0
      3686 MEMB     27       POPC     H8X      HAL2     0.900000E-01   1.00800           0
      3687 MEMB     27       POPC     H8Y      HAL2     0.900000E-01   1.00800           0
      3688 MEMB     27       POPC     C39      CTL2    -0.180000       12.0110           0
      3689 MEMB     27       POPC     H9X      HAL2     0.900000E-01   1.00800           0
      3690 MEMB     27       POPC     H9Y      HAL2     0.900000E-01   1.00800           0
      3691 MEMB     27       POPC     C310     CTL2    -0.180000       12.0110           0
      3692 MEMB     27       POPC     H10X     HAL2     0.900000E-01   1.00800           0
      3693 MEMB     27       POPC     H10Y     HAL2     0.900000E-01   1.00800           0
      3694 MEMB     27       POPC     C311     CTL2    -0.180000       12.0110           0
      3695 MEMB     27       POPC     H11X     HAL2     0.900000E-01   1.00800           0
      3696 MEMB     27       POPC     H11Y     HAL2     0.900000E-01   1.00800           0
      3697 MEMB     27       POPC     C312     CTL2    -0.180000       12.0110           0
      3698 MEMB     27       POPC     H12X     HAL2     0.900000E-01   1.00800           0
      3699 MEMB     27       POPC     H12Y     HAL2     0.900000E-01   1.00800           0
      3700 MEMB     27       POPC     C313     CTL2    -0.180000       12.0110           0
      3701 MEMB     27       POPC     H13X     HAL2     0.900000E-01   1.00800           0
      3702 MEMB     27       POPC     H13Y     HAL2     0.900000E-01   1.00800           0
      3703 MEMB     27       POPC     C314     CTL2    -0.180000       12.0110           0
      3704 MEMB     27       POPC     H14X     HAL2     0.900000E-01   1.00800           0
      3705 MEMB     27       POPC     H14Y     HAL2     0.900000E-01   1.00800           0
      3706 MEMB     27       POPC     C315     CTL2    -0.180000       12.0110           0
      3707 MEMB     27       POPC     H15X     HAL2     0.900000E-01   1.00800           0
      3708 MEMB     27       POPC     H15Y     HAL2     0.900000E-01   1.00800           0
      3709 MEMB     27       POPC     C316     CTL3    -0.270000       12.0110           0
      3710 MEMB     27       POPC     H16X     HAL3     0.900000E-01   1.00800           0
      3711 MEMB     27       POPC     H16Y     HAL3     0.900000E-01   1.00800           0
      3712 MEMB     27       POPC     H16Z     HAL3     0.900000E-01   1.00800           0
      3713 MEMB     28       POPC     N        NTL     -0.600000       14.0070           0
      3714 MEMB     28       POPC     C12      CTL2    -0.100000       12.0110           0
      3715 MEMB     28       POPC     H12A     HL       0.250000       1.00800           0
      3716 MEMB     28       POPC     H12B     HL       0.250000       1.00800           0
      3717 MEMB     28       POPC     C13      CTL5    -0.350000       12.0110           0
      3718 MEMB     28       POPC     H13A     HL       0.250000       1.00800           0
      3719 MEMB     28       POPC     H13B     HL       0.250000       1.00800           0
      3720 MEMB     28       POPC     H13C     HL       0.250000       1.00800           0
      3721 MEMB     28       POPC     C14      CTL5    -0.350000       12.0110           0
      3722 MEMB     28       POPC     H14A     HL       0.250000       1.00800           0
      3723 MEMB     28       POPC     H14B     HL       0.250000       1.00800           0
      3724 MEMB     28       POPC     H14C     HL       0.250000       1.00800           0
      3725 MEMB     28       POPC     C15      CTL5    -0.350000       12.0110           0
      3726 MEMB     28       POPC     H15A     HL       0.250000       1.00800           0
      3727 MEMB     28       POPC     H15B     HL       0.250000       1.00800           0
      3728 MEMB     28       POPC     H15C     HL       0.250000       1.00800           0
      3729 MEMB     28       POPC     C11      CTL2    -0.800000E-01   12.0110           0
      3730 MEMB     28       POPC     H11A     HAL2     0.900000E-01   1.00800           0
      3731 MEMB     28       POPC     H11B     HAL2     0.900000E-01   1.00800           0
      3732 MEMB     28       POPC     P        PL       1.500000       30.9740           0
      3733 MEMB     28       POPC     O13      O2L     -0.780000       15.9994           0
      3734 MEMB     28       POPC     O14      O2L     -0.780000       15.9994           0
      3735 MEMB     28       POPC     O12      OSLP    -0.570000       15.9994           0
      3736 MEMB     28       POPC     O11      OSLP    -0.570000       15.9994           0
      3737 MEMB     28       POPC     C1       CTL2    -0.800000E-01   12.0110           0
      3738 MEMB     28       POPC     HA       HAL2     0.900000E-01   1.00800           0
      3739 MEMB     28       POPC     HB       HAL2     0.900000E-01   1.00800           0
      3740 MEMB     28       POPC     C2       CTL1     0.170000       12.0110           0
      3741 MEMB     28       POPC     HS       HAL1     0.900000E-01   1.00800           0
      3742 MEMB     28       POPC     O21      OSL     -0.490000       15.9994           0
      3743 MEMB     28       POPC     C21      CL       0.900000       12.0110           0
      3744 MEMB     28       POPC     O22      OBL     -0.630000       15.9994           0
      3745 MEMB     28       POPC     C22      CTL2    -0.220000       12.0110           0
      3746 MEMB     28       POPC     H2R      HAL2     0.900000E-01   1.00800           0
      3747 MEMB     28       POPC     H2S      HAL2     0.900000E-01   1.00800           0
      3748 MEMB     28       POPC     C3       CTL2     0.800000E-01   12.0110           0
      3749 MEMB     28       POPC     HX       HAL2     0.900000E-01   1.00800           0
      3750 MEMB     28       POPC     HY       HAL2     0.900000E-01   1.00800           0
      3751 MEMB     28       POPC     O31      OSL     -0.490000       15.9994           0
      3752 MEMB     28       POPC     C31      CL       0.900000       12.0110           0
      3753 MEMB     28       POPC     O32      OBL     -0.630000       15.9994           0
      3754 MEMB     28       POPC     C32      CTL2    -0.220000       12.0110           0
      3755 MEMB     28       POPC     H2X      HAL2     0.900000E-01   1.00800           0
      3756 MEMB     28       POPC     H2Y      HAL2     0.900000E-01   1.00800           0
      3757 MEMB     28       POPC     C23      CTL2    -0.180000       12.0110           0
      3758 MEMB     28       POPC     H3R      HAL2     0.900000E-01   1.00800           0
      3759 MEMB     28       POPC     H3S      HAL2     0.900000E-01   1.00800           0
      3760 MEMB     28       POPC     C24      CTL2    -0.180000       12.0110           0
      3761 MEMB     28       POPC     H4R      HAL2     0.900000E-01   1.00800           0
      3762 MEMB     28       POPC     H4S      HAL2     0.900000E-01   1.00800           0
      3763 MEMB     28       POPC     C25      CTL2    -0.180000       12.0110           0
      3764 MEMB     28       POPC     H5R      HAL2     0.900000E-01   1.00800           0
      3765 MEMB     28       POPC     H5S      HAL2     0.900000E-01   1.00800           0
      3766 MEMB     28       POPC     C26      CTL2    -0.180000       12.0110           0
      3767 MEMB     28       POPC     H6R      HAL2     0.900000E-01   1.00800           0
      3768 MEMB     28       POPC     H6S      HAL2     0.900000E-01   1.00800           0
      3769 MEMB     28       POPC     C27      CTL2    -0.180000       12.0110           0
      3770 MEMB     28       POPC     H7R      HAL2     0.900000E-01   1.00800           0
      3771 MEMB     28       POPC     H7S      HAL2     0.900000E-01   1.00800           0
      3772 MEMB     28       POPC     C28      CTL2    -0.180000       12.0110           0
      3773 MEMB     28       POPC     H8R      HAL2     0.900000E-01   1.00800           0
      3774 MEMB     28       POPC     H8S      HAL2     0.900000E-01   1.00800           0
      3775 MEMB     28       POPC     C29      CEL1    -0.150000       12.0110           0
      3776 MEMB     28       POPC     H91      HEL1     0.150000       1.00800           0
      3777 MEMB     28       POPC     C210     CEL1    -0.150000       12.0110           0
      3778 MEMB     28       POPC     H101     HEL1     0.150000       1.00800           0
      3779 MEMB     28       POPC     C211     CTL2    -0.180000       12.0110           0
      3780 MEMB     28       POPC     H11R     HAL2     0.900000E-01   1.00800           0
      3781 MEMB     28       POPC     H11S     HAL2     0.900000E-01   1.00800           0
      3782 MEMB     28       POPC     C212     CTL2    -0.180000       12.0110           0
      3783 MEMB     28       POPC     H12R     HAL2     0.900000E-01   1.00800           0
      3784 MEMB     28       POPC     H12S     HAL2     0.900000E-01   1.00800           0
      3785 MEMB     28       POPC     C213     CTL2    -0.180000       12.0110           0
      3786 MEMB     28       POPC     H13R     HAL2     0.900000E-01   1.00800           0
      3787 MEMB     28       POPC     H13S     HAL2     0.900000E-01   1.00800           0
      3788 MEMB     28       POPC     C214     CTL2    -0.180000       12.0110           0
      3789 MEMB     28       POPC     H14R     HAL2     0.900000E-01   1.00800           0
      3790 MEMB     28       POPC     H14S     HAL2     0.900000E-01   1.00800           0
      3791 MEMB     28       POPC     C215     CTL2    -0.180000       12.0110           0
      3792 MEMB     28       POPC     H15R     HAL2     0.900000E-01   1.00800           0
      3793 MEMB     28       POPC     H15S     HAL2     0.900000E-01   1.00800           0
      3794 MEMB     28       POPC     C216     CTL2    -0.180000       12.0110           0
      3795 MEMB     28       POPC     H16R     HAL2     0.900000E-01   1.00800           0
      3796 MEMB     28       POPC     H16S     HAL2     0.900000E-01   1.00800           0
      3797 MEMB     28       POPC     C217     CTL2    -0.180000       12.0110           0
      3798 MEMB     28       POPC     H17R     HAL2     0.900000E-01   1.00800           0
      3799 MEMB     28       POPC     H17S     HAL2     0.900000E-01   1.00800           0
      3800 MEMB     28       POPC     C218     CTL3    -0.270000       12.0110           0
      3801 MEMB     28       POPC     H18R     HAL3     0.900000E-01   1.00800           0
      3802 MEMB     28       POPC     H18S     HAL3     0.900000E-01   1.00800           0
      3803 MEMB     28       POPC     H18T     HAL3     0.900000E-01   1.00800           0
      3804 MEMB     28       POPC     C33      CTL2    -0.180000       12.0110           0
      3805 MEMB     28       POPC     H3X      HAL2     0.900000E-01   1.00800           0
      3806 MEMB     28       POPC     H3Y      HAL2     0.900000E-01   1.00800           0
      3807 MEMB     28       POPC     C34      CTL2    -0.180000       12.0110           0
      3808 MEMB     28       POPC     H4X      HAL2     0.900000E-01   1.00800           0
      3809 MEMB     28       POPC     H4Y      HAL2     0.900000E-01   1.00800           0
      3810 MEMB     28       POPC     C35      CTL2    -0.180000       12.0110           0
      3811 MEMB     28       POPC     H5X      HAL2     0.900000E-01   1.00800           0
      3812 MEMB     28       POPC     H5Y      HAL2     0.900000E-01   1.00800           0
      3813 MEMB     28       POPC     C36      CTL2    -0.180000       12.0110           0
      3814 MEMB     28       POPC     H6X      HAL2     0.900000E-01   1.00800           0
      3815 MEMB     28       POPC     H6Y      HAL2     0.900000E-01   1.00800           0
      3816 MEMB     28       POPC     C37      CTL2    -0.180000       12.0110           0
      3817 MEMB     28       POPC     H7X      HAL2     0.900000E-01   1.00800           0
      3818 MEMB     28       POPC     H7Y      HAL2     0.900000E-01   1.00800           0
      3819 MEMB     28       POPC     C38      CTL2    -0.180000       12.0110           0
      3820 MEMB     28       POPC     H8X      HAL2     0.900000E-01   1.00800           0
      3821 MEMB     28       POPC     H8Y      HAL2     0.900000E-01   1.00800           0
      3822 MEMB     28       POPC     C39      CTL2    -0.180000       12.0110           0
      3823 MEMB     28       POPC     H9X      HAL2     0.900000E-01   1.00800           0
      3824 MEMB     28       POPC     H9Y      HAL2     0.900000E-01   1.00800           0
      3825 MEMB     28       POPC     C310     CTL2    -0.180000       12.0110           0
      3826 MEMB     28       POPC     H10X     HAL2     0.900000E-01   1.00800           0
      3827 MEMB     28       POPC     H10Y     HAL2     0.900000E-01   1.00800           0
      3828 MEMB     28       POPC     C311     CTL2    -0.180000       12.0110           0
      3829 MEMB     28       POPC     H11X     HAL2     0.900000E-01   1.00800           0
      3830 MEMB     28       POPC     H11Y     HAL2     0.900000E-01   1.00800           0
      3831 MEMB     28       POPC     C312     CTL2    -0.180000       12.0110           0
      3832 MEMB     28       POPC     H12X     HAL2     0.900000E-01   1.00800           0
      3833 MEMB     28       POPC     H12Y     HAL2     0.900000E-01   1.00800           0
      3834 MEMB     28       POPC     C313     CTL2    -0.180000       12.0110           0
      3835 MEMB     28       POPC     H13X     HAL2     0.900000E-01   1.00800           0
      3836 MEMB     28       POPC     H13Y     HAL2     0.900000E-01   1.00800           0
      3837 MEMB     28       POPC     C314     CTL2    -0.180000       12.0110           0
      3838 MEMB     28       POPC     H14X     HAL2     0.900000E-01   1.00800           0
      3839 MEMB     28       POPC     H14Y     HAL2     0.900000E-01   1.00800           0
      3840 MEMB     28       POPC     C315     CTL2    -0.180000       12.0110           0
      3841 MEMB     28       POPC     H15X     HAL2     0.900000E-01   1.00800           0
      3842 MEMB     28       POPC     H15Y     HAL2     0.900000E-01   1.00800           0
      3843 MEMB     28       POPC     C316     CTL3    -0.270000       12.0110           0
      3844 MEMB     28       POPC     H16X     HAL3     0.900000E-01   1.00800           0
      3845 MEMB     28       POPC     H16Y     HAL3     0.900000E-01   1.00800           0
      3846 MEMB     28       POPC     H16Z     HAL3     0.900000E-01   1.00800           0
      3847 MEMB     29       POPC     N        NTL     -0.600000       14.0070           0
      3848 MEMB     29       POPC     C12      CTL2    -0.100000       12.0110           0
      3849 MEMB     29       POPC     H12A     HL       0.250000       1.00800           0
      3850 MEMB     29       POPC     H12B     HL       0.250000       1.00800           0
      3851 MEMB     29       POPC     C13      CTL5    -0.350000       12.0110           0
      3852 MEMB     29       POPC     H13A     HL       0.250000       1.00800           0
      3853 MEMB     29       POPC     H13B     HL       0.250000       1.00800           0
      3854 MEMB     29       POPC     H13C     HL       0.250000       1.00800           0
      3855 MEMB     29       POPC     C14      CTL5    -0.350000       12.0110           0
      3856 MEMB     29       POPC     H14A     HL       0.250000       1.00800           0
      3857 MEMB     29       POPC     H14B     HL       0.250000       1.00800           0
      3858 MEMB     29       POPC     H14C     HL       0.250000       1.00800           0
      3859 MEMB     29       POPC     C15      CTL5    -0.350000       12.0110           0
      3860 MEMB     29       POPC     H15A     HL       0.250000       1.00800           0
      3861 MEMB     29       POPC     H15B     HL       0.250000       1.00800           0
      3862 MEMB     29       POPC     H15C     HL       0.250000       1.00800           0
      3863 MEMB     29       POPC     C11      CTL2    -0.800000E-01   12.0110           0
      3864 MEMB     29       POPC     H11A     HAL2     0.900000E-01   1.00800           0
      3865 MEMB     29       POPC     H11B     HAL2     0.900000E-01   1.00800           0
      3866 MEMB     29       POPC     P        PL       1.500000       30.9740           0
      3867 MEMB     29       POPC     O13      O2L     -0.780000       15.9994           0
      3868 MEMB     29       POPC     O14      O2L     -0.780000       15.9994           0
      3869 MEMB     29       POPC     O12      OSLP    -0.570000       15.9994           0
      3870 MEMB     29       POPC     O11      OSLP    -0.570000       15.9994           0
      3871 MEMB     29       POPC     C1       CTL2    -0.800000E-01   12.0110           0
      3872 MEMB     29       POPC     HA       HAL2     0.900000E-01   1.00800           0
      3873 MEMB     29       POPC     HB       HAL2     0.900000E-01   1.00800           0
      3874 MEMB     29       POPC     C2       CTL1     0.170000       12.0110           0
      3875 MEMB     29       POPC     HS       HAL1     0.900000E-01   1.00800           0
      3876 MEMB     29       POPC     O21      OSL     -0.490000       15.9994           0
      3877 MEMB     29       POPC     C21      CL       0.900000       12.0110           0
      3878 MEMB     29       POPC     O22      OBL     -0.630000       15.9994           0
      3879 MEMB     29       POPC     C22      CTL2    -0.220000       12.0110           0
      3880 MEMB     29       POPC     H2R      HAL2     0.900000E-01   1.00800           0
      3881 MEMB     29       POPC     H2S      HAL2     0.900000E-01   1.00800           0
      3882 MEMB     29       POPC     C3       CTL2     0.800000E-01   12.0110           0
      3883 MEMB     29       POPC     HX       HAL2     0.900000E-01   1.00800           0
      3884 MEMB     29       POPC     HY       HAL2     0.900000E-01   1.00800           0
      3885 MEMB     29       POPC     O31      OSL     -0.490000       15.9994           0
      3886 MEMB     29       POPC     C31      CL       0.900000       12.0110           0
      3887 MEMB     29       POPC     O32      OBL     -0.630000       15.9994           0
      3888 MEMB     29       POPC     C32      CTL2    -0.220000       12.0110           0
      3889 MEMB     29       POPC     H2X      HAL2     0.900000E-01   1.00800           0
      3890 MEMB     29       POPC     H2Y      HAL2     0.900000E-01   1.00800           0
      3891 MEMB     29       POPC     C23      CTL2    -0.180000       12.0110           0
      3892 MEMB     29       POPC     H3R      HAL2     0.900000E-01   1.00800           0
      3893 MEMB     29       POPC     H3S      HAL2     0.900000E-01   1.00800           0
      3894 MEMB     29       POPC     C24      CTL2    -0.180000       12.0110           0
      3895 MEMB     29       POPC     H4R      HAL2     0.900000E-01   1.00800           0
      3896 MEMB     29       POPC     H4S      HAL2     0.900000E-01   1.00800           0
      3897 MEMB     29       POPC     C25      CTL2    -0.180000       12.0110           0
      3898 MEMB     29       POPC     H5R      HAL2     0.900000E-01   1.00800           0
      3899 MEMB     29       POPC     H5S      HAL2     0.900000E-01   1.00800           0
      3900 MEMB     29       POPC     C26      CTL2    -0.180000       12.0110           0
      3901 MEMB     29       POPC     H6R      HAL2     0.900000E-01   1.00800           0
      3902 MEMB     29       POPC     H6S      HAL2     0.900000E-01   1.00800           0
      3903 MEMB     29       POPC     C27      CTL2    -0.180000       12.0110           0
      3904 MEMB     29       POPC     H7R      HAL2     0.900000E-01   1.00800           0
      3905 MEMB     29       POPC     H7S      HAL2     0.900000E-01   1.00800           0
      3906 MEMB     29       POPC     C28      CTL2    -0.180000       12.0110           0
      3907 MEMB     29       POPC     H8R      HAL2     0.900000E-01   1.00800           0
      3908 MEMB     29       POPC     H8S      HAL2     0.900000E-01   1.00800           0
      3909 MEMB     29       POPC     C29      CEL1    -0.150000       12.0110           0
      3910 MEMB     29       POPC     H91      HEL1     0.150000       1.00800           0
      3911 MEMB     29       POPC     C210     CEL1    -0.150000       12.0110           0
      3912 MEMB     29       POPC     H101     HEL1     0.150000       1.00800           0
      3913 MEMB     29       POPC     C211     CTL2    -0.180000       12.0110           0
      3914 MEMB     29       POPC     H11R     HAL2     0.900000E-01   1.00800           0
      3915 MEMB     29       POPC     H11S     HAL2     0.900000E-01   1.00800           0
      3916 MEMB     29       POPC     C212     CTL2    -0.180000       12.0110           0
      3917 MEMB     29       POPC     H12R     HAL2     0.900000E-01   1.00800           0
      3918 MEMB     29       POPC     H12S     HAL2     0.900000E-01   1.00800           0
      3919 MEMB     29       POPC     C213     CTL2    -0.180000       12.0110           0
      3920 MEMB     29       POPC     H13R     HAL2     0.900000E-01   1.00800           0
      3921 MEMB     29       POPC     H13S     HAL2     0.900000E-01   1.00800           0
      3922 MEMB     29       POPC     C214     CTL2    -0.180000       12.0110           0
      3923 MEMB     29       POPC     H14R     HAL2     0.900000E-01   1.00800           0
      3924 MEMB     29       POPC     H14S     HAL2     0.900000E-01   1.00800           0
      3925 MEMB     29       POPC     C215     CTL2    -0.180000       12.0110           0
      3926 MEMB     29       POPC     H15R     HAL2     0.900000E-01   1.00800           0
      3927 MEMB     29       POPC     H15S     HAL2     0.900000E-01   1.00800           0
      3928 MEMB     29       POPC     C216     CTL2    -0.180000       12.0110           0
      3929 MEMB     29       POPC     H16R     HAL2     0.900000E-01   1.00800           0
      3930 MEMB     29       POPC     H16S     HAL2     0.900000E-01   1.00800           0
      3931 MEMB     29       POPC     C217     CTL2    -0.180000       12.0110           0
      3932 MEMB     29       POPC     H17R     HAL2     0.900000E-01   1.00800           0
      3933 MEMB     29       POPC     H17S     HAL2     0.900000E-01   1.00800           0
      3934 MEMB     29       POPC     C218     CTL3    -0.270000       12.0110           0
      3935 MEMB     29       POPC     H18R     HAL3     0.900000E-01   1.00800           0
      3936 MEMB     29       POPC     H18S     HAL3     0.900000E-01   1.00800           0
      3937 MEMB     29       POPC     H18T     HAL3     0.900000E-01   1.00800           0
      3938 MEMB     29       POPC     C33      CTL2    -0.180000       12.0110           0
      3939 MEMB     29       POPC     H3X      HAL2     0.900000E-01   1.00800           0
      3940 MEMB     29       POPC     H3Y      HAL2     0.900000E-01   1.00800           0
      3941 MEMB     29       POPC     C34      CTL2    -0.180000       12.0110           0
      3942 MEMB     29       POPC     H4X      HAL2     0.900000E-01   1.00800           0
      3943 MEMB     29       POPC     H4Y      HAL2     0.900000E-01   1.00800           0
      3944 MEMB     29       POPC     C35      CTL2    -0.180000       12.0110           0
      3945 MEMB     29       POPC     H5X      HAL2     0.900000E-01   1.00800           0
      3946 MEMB     29       POPC     H5Y      HAL2     0.900000E-01   1.00800           0
      3947 MEMB     29       POPC     C36      CTL2    -0.180000       12.0110           0
      3948 MEMB     29       POPC     H6X      HAL2     0.900000E-01   1.00800           0
      3949 MEMB     29       POPC     H6Y      HAL2     0.900000E-01   1.00800           0
      3950 MEMB     29       POPC     C37      CTL2    -0.180000       12.0110           0
      3951 MEMB     29       POPC     H7X      HAL2     0.900000E-01   1.00800           0
      3952 MEMB     29       POPC     H7Y      HAL2     0.900000E-01   1.00800           0
      3953 MEMB     29       POPC     C38      CTL2    -0.180000       12.0110           0
      3954 MEMB     29       POPC     H8X      HAL2     0.900000E-01   1.00800           0
      3955 MEMB     29       POPC     H8Y      HAL2     0.900000E-01   1.00800           0
      3956 MEMB     29       POPC     C39      CTL2    -0.180000       12.0110           0
      3957 MEMB     29       POPC     H9X      HAL2     0.900000E-01   1.00800           0
      3958 MEMB     29       POPC     H9Y      HAL2     0.900000E-01   1.00800           0
      3959 MEMB     29       POPC     C310     CTL2    -0.180000       12.0110           0
      3960 MEMB     29       POPC     H10X     HAL2     0.900000E-01   1.00800           0
      3961 MEMB     29       POPC     H10Y     HAL2     0.900000E-01   1.00800           0
      3962 MEMB     29       POPC     C311     CTL2    -0.180000       12.0110           0
      3963 MEMB     29       POPC     H11X     HAL2     0.900000E-01   1.00800           0
      3964 MEMB     29       POPC     H11Y     HAL2     0.900000E-01   1.00800           0
      3965 MEMB     29       POPC     C312     CTL2    -0.180000       12.0110           0
      3966 MEMB     29       POPC     H12X     HAL2     0.900000E-01   1.00800           0
      3967 MEMB     29       POPC     H12Y     HAL2     0.900000E-01   1.00800           0
      3968 MEMB     29       POPC     C313     CTL2    -0.180000       12.0110           0
      3969 MEMB     29       POPC     H13X     HAL2     0.900000E-01   1.00800           0
      3970 MEMB     29       POPC     H13Y     HAL2     0.900000E-01   1.00800           0
      3971 MEMB     29       POPC     C314     CTL2    -0.180000       12.0110           0
      3972 MEMB     29       POPC     H14X     HAL2     0.900000E-01   1.00800           0
      3973 MEMB     29       POPC     H14Y     HAL2     0.900000E-01   1.00800           0
      3974 MEMB     29       POPC     C315     CTL2    -0.180000       12.0110           0
      3975 MEMB     29       POPC     H15X     HAL2     0.900000E-01   1.00800           0
      3976 MEMB     29       POPC     H15Y     HAL2     0.900000E-01   1.00800           0
      3977 MEMB     29       POPC     C316     CTL3    -0.270000       12.0110           0
      3978 MEMB     29       POPC     H16X     HAL3     0.900000E-01   1.00800           0
      3979 MEMB     29       POPC     H16Y     HAL3     0.900000E-01   1.00800           0
      3980 MEMB     29       POPC     H16Z     HAL3     0.900000E-01   1.00800           0
      3981 MEMB     30       POPC     N        NTL     -0.600000       14.0070           0
      3982 MEMB     30       POPC     C12      CTL2    -0.100000       12.0110           0
      3983 MEMB     30       POPC     H12A     HL       0.250000       1.00800           0
      3984 MEMB     30       POPC     H12B     HL       0.250000       1.00800           0
      3985 MEMB     30       POPC     C13      CTL5    -0.350000       12.0110           0
      3986 MEMB     30       POPC     H13A     HL       0.250000       1.00800           0
      3987 MEMB     30       POPC     H13B     HL       0.250000       1.00800           0
      3988 MEMB     30       POPC     H13C     HL       0.250000       1.00800           0
      3989 MEMB     30       POPC     C14      CTL5    -0.350000       12.0110           0
      3990 MEMB     30       POPC     H14A     HL       0.250000       1.00800           0
      3991 MEMB     30       POPC     H14B     HL       0.250000       1.00800           0
      3992 MEMB     30       POPC     H14C     HL       0.250000       1.00800           0
      3993 MEMB     30       POPC     C15      CTL5    -0.350000       12.0110           0
      3994 MEMB     30       POPC     H15A     HL       0.250000       1.00800           0
      3995 MEMB     30       POPC     H15B     HL       0.250000       1.00800           0
      3996 MEMB     30       POPC     H15C     HL       0.250000       1.00800           0
      3997 MEMB     30       POPC     C11      CTL2    -0.800000E-01   12.0110           0
      3998 MEMB     30       POPC     H11A     HAL2     0.900000E-01   1.00800           0
      3999 MEMB     30       POPC     H11B     HAL2     0.900000E-01   1.00800           0
      4000 MEMB     30       POPC     P        PL       1.500000       30.9740           0
      4001 MEMB     30       POPC     O13      O2L     -0.780000       15.9994           0
      4002 MEMB     30       POPC     O14      O2L     -0.780000       15.9994           0
      4003 MEMB     30       POPC     O12      OSLP    -0.570000       15.9994           0
      4004 MEMB     30       POPC     O11      OSLP    -0.570000       15.9994           0
      4005 MEMB     30       POPC     C1       CTL2    -0.800000E-01   12.0110           0
      4006 MEMB     30       POPC     HA       HAL2     0.900000E-01   1.00800           0
      4007 MEMB     30       POPC     HB       HAL2     0.900000E-01   1.00800           0
      4008 MEMB     30       POPC     C2       CTL1     0.170000       12.0110           0
      4009 MEMB     30       POPC     HS       HAL1     0.900000E-01   1.00800           0
      4010 MEMB     30       POPC     O21      OSL     -0.490000       15.9994           0
      4011 MEMB     30       POPC     C21      CL       0.900000       12.0110           0
      4012 MEMB     30       POPC     O22      OBL     -0.630000       15.9994           0
      4013 MEMB     30       POPC     C22      CTL2    -0.220000       12.0110           0
      4014 MEMB     30       POPC     H2R      HAL2     0.900000E-01   1.00800           0
      4015 MEMB     30       POPC     H2S      HAL2     0.900000E-01   1.00800           0
      4016 MEMB     30       POPC     C3       CTL2     0.800000E-01   12.0110           0
      4017 MEMB     30       POPC     HX       HAL2     0.900000E-01   1.00800           0
      4018 MEMB     30       POPC     HY       HAL2     0.900000E-01   1.00800           0
      4019 MEMB     30       POPC     O31      OSL     -0.490000       15.9994           0
      4020 MEMB     30       POPC     C31      CL       0.900000       12.0110           0
      4021 MEMB     30       POPC     O32      OBL     -0.630000       15.9994           0
      4022 MEMB     30       POPC     C32      CTL2    -0.220000       12.0110           0
      4023 MEMB     30       POPC     H2X      HAL2     0.900000E-01   1.00800           0
      4024 MEMB     30       POPC     H2Y      HAL2     0.900000E-01   1.00800           0
      4025 MEMB     30       POPC     C23      CTL2    -0.180000       12.0110           0
      4026 MEMB     30       POPC     H3R      HAL2     0.900000E-01   1.00800           0
      4027 MEMB     30       POPC     H3S      HAL2     0.900000E-01   1.00800           0
      4028 MEMB     30       POPC     C24      CTL2    -0.180000       12.0110           0
      4029 MEMB     30       POPC     H4R      HAL2     0.900000E-01   1.00800           0
      4030 MEMB     30       POPC     H4S      HAL2     0.900000E-01   1.00800           0
      4031 MEMB     30       POPC     C25      CTL2    -0.180000       12.0110           0
      4032 MEMB     30       POPC     H5R      HAL2     0.900000E-01   1.00800           0
      4033 MEMB     30       POPC     H5S      HAL2     0.900000E-01   1.00800           0
      4034 MEMB     30       POPC     C26      CTL2    -0.180000       12.0110           0
      4035 MEMB     30       POPC     H6R      HAL2     0.900000E-01   1.00800           0
      4036 MEMB     30       POPC     H6S      HAL2     0.900000E-01   1.00800           0
      4037 MEMB     30       POPC     C27      CTL2    -0.180000       12.0110           0
      4038 MEMB     30       POPC     H7R      HAL2     0.900000E-01   1.00800           0
      4039 MEMB     30       POPC     H7S      HAL2     0.900000E-01   1.00800           0
      4040 MEMB     30       POPC     C28      CTL2    -0.180000       12.0110           0
      4041 MEMB     30       POPC     H8R      HAL2     0.900000E-01   1.00800           0
      4042 MEMB     30       POPC     H8S      HAL2     0.900000E-01   1.00800           0
      4043 MEMB     30       POPC     C29      CEL1    -0.150000       12.0110           0
      4044 MEMB     30       POPC     H91      HEL1     0.150000       1.00800           0
      4045 MEMB     30       POPC     C210     CEL1    -0.150000       12.0110           0
      4046 MEMB     30       POPC     H101     HEL1     0.150000       1.00800           0
      4047 MEMB     30       POPC     C211     CTL2    -0.180000       12.0110           0
      4048 MEMB     30       POPC     H11R     HAL2     0.900000E-01   1.00800           0
      4049 MEMB     30       POPC     H11S     HAL2     0.900000E-01   1.00800           0
      4050 MEMB     30       POPC     C212     CTL2    -0.180000       12.0110           0
      4051 MEMB     30       POPC     H12R     HAL2     0.900000E-01   1.00800           0
      4052 MEMB     30       POPC     H12S     HAL2     0.900000E-01   1.00800           0
      4053 MEMB     30       POPC     C213     CTL2    -0.180000       12.0110           0
      4054 MEMB     30       POPC     H13R     HAL2     0.900000E-01   1.00800           0
      4055 MEMB     30       POPC     H13S     HAL2     0.900000E-01   1.00800           0
      4056 MEMB     30       POPC     C214     CTL2    -0.180000       12.0110           0
      4057 MEMB     30       POPC     H14R     HAL2     0.900000E-01   1.00800           0
      4058 MEMB     30       POPC     H14S     HAL2     0.900000E-01   1.00800           0
      4059 MEMB     30       POPC     C215     CTL2    -0.180000       12.0110           0
      4060 MEMB     30       POPC     H15R     HAL2     0.900000E-01   1.00800           0
      4061 MEMB     30       POPC     H15S     HAL2     0.900000E-01   1.00800           0
      4062 MEMB     30       POPC     C216     CTL2    -0.180000       12.0110           0
      4063 MEMB     30       POPC     H16R     HAL2     0.900000E-01   1.00800           0
      4064 MEMB     30       POPC     H16S     HAL2     0.900000E-01   1.00800           0
      4065 MEMB     30       POPC     C217     CTL2    -0.180000       12.0110           0
      4066 MEMB     30       POPC     H17R     HAL2     0.900000E-01   1.00800           0
      4067 MEMB     30       POPC     H17S     HAL2     0.900000E-01   1.00800           0
      4068 MEMB     30       POPC     C218     CTL3    -0.270000       12.0110           0
      4069 MEMB     30       POPC     H18R     HAL3     0.900000E-01   1.00800           0
      4070 MEMB     30       POPC     H18S     HAL3     0.900000E-01   1.00800           0
      4071 MEMB     30       POPC     H18T     HAL3     0.900000E-01   1.00800           0
      4072 MEMB     30       POPC     C33      CTL2    -0.180000       12.0110           0
      4073 MEMB     30       POPC     H3X      HAL2     0.900000E-01   1.00800           0
      4074 MEMB     30       POPC     H3Y      HAL2     0.900000E-01   1.00800           0
      4075 MEMB     30       POPC     C34      CTL2    -0.180000       12.0110           0
      4076 MEMB     30       POPC     H4X      HAL2     0.900000E-01   1.00800           0
      4077 MEMB     30       POPC     H4Y      HAL2     0.900000E-01   1.00800           0
      4078 MEMB     30       POPC     C35      CTL2    -0.180000       12.0110           0
      4079 MEMB     30       POPC     H5X      HAL2     0.900000E-01   1.00800           0
      4080 MEMB     30       POPC     H5Y      HAL2     0.900000E-01   1.00800           0
      4081 MEMB     30       POPC     C36      CTL2    -0.180000       12.0110           0
      4082 MEMB     30       POPC     H6X      HAL2     0.900000E-01   1.00800           0
      4083 MEMB     30       POPC     H6Y      HAL2     0.900000E-01   1.00800           0
      4084 MEMB     30       POPC     C37      CTL2    -0.180000       12.0110           0
      4085 MEMB     30       POPC     H7X      HAL2     0.900000E-01   1.00800           0
      4086 MEMB     30       POPC     H7Y      HAL2     0.900000E-01   1.00800           0
      4087 MEMB     30       POPC     C38      CTL2    -0.180000       12.0110           0
      4088 MEMB     30       POPC     H8X      HAL2     0.900000E-01   1.00800           0
      4089 MEMB     30       POPC     H8Y      HAL2     0.900000E-01   1.00800           0
      4090 MEMB     30       POPC     C39      CTL2    -0.180000       12.0110           0
      4091 MEMB     30       POPC     H9X      HAL2     0.900000E-01   1.00800           0
      4092 MEMB     30       POPC     H9Y      HAL2     0.900000E-01   1.00800           0
      4093 MEMB     30       POPC     C310     CTL2    -0.180000       12.0110           0
      4094 MEMB     30       POPC     H10X     HAL2     0.900000E-01   1.00800           0
      4095 MEMB     30       POPC     H10Y     HAL2     0.900000E-01   1.00800           0
      4096 MEMB     30       POPC     C311     CTL2    -0.180000       12.0110           0
      4097 MEMB     30       POPC     H11X     HAL2     0.900000E-01   1.00800           0
      4098 MEMB     30       POPC     H11Y     HAL2     0.900000E-01   1.00800           0
      4099 MEMB     30       POPC     C312     CTL2    -0.180000       12.0110           0
      4100 MEMB     30       POPC     H12X     HAL2     0.900000E-01   1.00800           0
      4101 MEMB     30       POPC     H12Y     HAL2     0.900000E-01   1.00800           0
      4102 MEMB     30       POPC     C313     CTL2    -0.180000       12.0110           0
      4103 MEMB     30       POPC     H13X     HAL2     0.900000E-01   1.00800           0
      4104 MEMB     30       POPC     H13Y     HAL2     0.900000E-01   1.00800           0
      4105 MEMB     30       POPC     C314     CTL2    -0.180000       12.0110           0
      4106 MEMB     30       POPC     H14X     HAL2     0.900000E-01   1.00800           0
      4107 MEMB     30       POPC     H14Y     HAL2     0.900000E-01   1.00800           0
      4108 MEMB     30       POPC     C315     CTL2    -0.180000       12.0110           0
      4109 MEMB     30       POPC     H15X     HAL2     0.900000E-01   1.00800           0
      4110 MEMB     30       POPC     H15Y     HAL2     0.900000E-01   1.00800           0
      4111 MEMB     30       POPC     C316     CTL3    -0.270000       12.0110           0
      4112 MEMB     30       POPC     H16X     HAL3     0.900000E-01   1.00800           0
      4113 MEMB     30       POPC     H16Y     HAL3     0.900000E-01   1.00800           0
      4114 MEMB     30       POPC     H16Z     HAL3     0.900000E-01   1.00800           0
      4115 MEMB     31       POPS     N        NH3L    -0.300000       14.0070           0
      4116 MEMB     31       POPS     HN1      HCL      0.330000       1.00800           0
      4117 MEMB     31       POPS     HN2      HCL      0.330000       1.00800           0
      4118 MEMB     31       POPS     HN3      HCL      0.330000       1.00800           0
      4119 MEMB     31       POPS     C12      CTL1     0.210000       12.0110           0
      4120 MEMB     31       POPS     H12A     HBL      0.100000       1.00800           0
      4121 MEMB     31       POPS     C13      CCL      0.340000       12.0110           0
      4122 MEMB     31       POPS     O13A     OCL     -0.670000       15.9994           0
      4123 MEMB     31       POPS     O13B     OCL     -0.670000       15.9994           0
      4124 MEMB     31       POPS     C11      CTL2    -0.800000E-01   12.0110           0
      4125 MEMB     31       POPS     H11A     HAL2     0.900000E-01   1.00800           0
      4126 MEMB     31       POPS     H11B     HAL2     0.900000E-01   1.00800           0
      4127 MEMB     31       POPS     P        PL       1.500000       30.9740           0
      4128 MEMB     31       POPS     O13      O2L     -0.780000       15.9994           0
      4129 MEMB     31       POPS     O14      O2L     -0.780000       15.9994           0
      4130 MEMB     31       POPS     O12      OSLP    -0.570000       15.9994           0
      4131 MEMB     31       POPS     O11      OSLP    -0.570000       15.9994           0
      4132 MEMB     31       POPS     C1       CTL2    -0.800000E-01   12.0110           0
      4133 MEMB     31       POPS     HA       HAL2     0.900000E-01   1.00800           0
      4134 MEMB     31       POPS     HB       HAL2     0.900000E-01   1.00800           0
      4135 MEMB     31       POPS     C2       CTL1     0.170000       12.0110           0
      4136 MEMB     31       POPS     HS       HAL1     0.900000E-01   1.00800           0
      4137 MEMB     31       POPS     O21      OSL     -0.490000       15.9994           0
      4138 MEMB     31       POPS     C21      CL       0.900000       12.0110           0
      4139 MEMB     31       POPS     O22      OBL     -0.630000       15.9994           0
      4140 MEMB     31       POPS     C22      CTL2    -0.220000       12.0110           0
      4141 MEMB     31       POPS     H2R      HAL2     0.900000E-01   1.00800           0
      4142 MEMB     31       POPS     H2S      HAL2     0.900000E-01   1.00800           0
      4143 MEMB     31       POPS     C3       CTL2     0.800000E-01   12.0110           0
      4144 MEMB     31       POPS     HX       HAL2     0.900000E-01   1.00800           0
      4145 MEMB     31       POPS     HY       HAL2     0.900000E-01   1.00800           0
      4146 MEMB     31       POPS     O31      OSL     -0.490000       15.9994           0
      4147 MEMB     31       POPS     C31      CL       0.900000       12.0110           0
      4148 MEMB     31       POPS     O32      OBL     -0.630000       15.9994           0
      4149 MEMB     31       POPS     C32      CTL2    -0.220000       12.0110           0
      4150 MEMB     31       POPS     H2X      HAL2     0.900000E-01   1.00800           0
      4151 MEMB     31       POPS     H2Y      HAL2     0.900000E-01   1.00800           0
      4152 MEMB     31       POPS     C23      CTL2    -0.180000       12.0110           0
      4153 MEMB     31       POPS     H3R      HAL2     0.900000E-01   1.00800           0
      4154 MEMB     31       POPS     H3S      HAL2     0.900000E-01   1.00800           0
      4155 MEMB     31       POPS     C24      CTL2    -0.180000       12.0110           0
      4156 MEMB     31       POPS     H4R      HAL2     0.900000E-01   1.00800           0
      4157 MEMB     31       POPS     H4S      HAL2     0.900000E-01   1.00800           0
      4158 MEMB     31       POPS     C25      CTL2    -0.180000       12.0110           0
      4159 MEMB     31       POPS     H5R      HAL2     0.900000E-01   1.00800           0
      4160 MEMB     31       POPS     H5S      HAL2     0.900000E-01   1.00800           0
      4161 MEMB     31       POPS     C26      CTL2    -0.180000       12.0110           0
      4162 MEMB     31       POPS     H6R      HAL2     0.900000E-01   1.00800           0
      4163 MEMB     31       POPS     H6S      HAL2     0.900000E-01   1.00800           0
      4164 MEMB     31       POPS     C27      CTL2    -0.180000       12.0110           0
      4165 MEMB     31       POPS     H7R      HAL2     0.900000E-01   1.00800           0
      4166 MEMB     31       POPS     H7S      HAL2     0.900000E-01   1.00800           0
      4167 MEMB     31       POPS     C28      CTL2    -0.180000       12.0110           0
      4168 MEMB     31       POPS     H8R      HAL2     0.900000E-01   1.00800           0
      4169 MEMB     31       POPS     H8S      HAL2     0.900000E-01   1.00800           0
      4170 MEMB     31       POPS     C29      CEL1    -0.150000       12.0110           0
      4171 MEMB     31       POPS     H91      HEL1     0.150000       1.00800           0
      4172 MEMB     31       POPS     C210     CEL1    -0.150000       12.0110           0
      4173 MEMB     31       POPS     H101     HEL1     0.150000       1.00800           0
      4174 MEMB     31       POPS     C211     CTL2    -0.180000       12.0110           0
      4175 MEMB     31       POPS     H11R     HAL2     0.900000E-01   1.00800           0
      4176 MEMB     31       POPS     H11S     HAL2     0.900000E-01   1.00800           0
      4177 MEMB     31       POPS     C212     CTL2    -0.180000       12.0110           0
      4178 MEMB     31       POPS     H12R     HAL2     0.900000E-01   1.00800           0
      4179 MEMB     31       POPS     H12S     HAL2     0.900000E-01   1.00800           0
      4180 MEMB     31       POPS     C213     CTL2    -0.180000       12.0110           0
      4181 MEMB     31       POPS     H13R     HAL2     0.900000E-01   1.00800           0
      4182 MEMB     31       POPS     H13S     HAL2     0.900000E-01   1.00800           0
      4183 MEMB     31       POPS     C214     CTL2    -0.180000       12.0110           0
      4184 MEMB     31       POPS     H14R     HAL2     0.900000E-01   1.00800           0
      4185 MEMB     31       POPS     H14S     HAL2     0.900000E-01   1.00800           0
      4186 MEMB     31       POPS     C215     CTL2    -0.180000       12.0110           0
      4187 MEMB     31       POPS     H15R     HAL2     0.900000E-01   1.00800           0
      4188 MEMB     31       POPS     H15S     HAL2     0.900000E-01   1.00800           0
      4189 MEMB     31       POPS     C216     CTL2    -0.180000       12.0110           0
      4190 MEMB     31       POPS     H16R     HAL2     0.900000E-01   1.00800           0
      4191 MEMB     31       POPS     H16S     HAL2     0.900000E-01   1.00800           0
      4192 MEMB     31       POPS     C217     CTL2    -0.180000       12.0110           0
      4193 MEMB     31       POPS     H17R     HAL2     0.900000E-01   1.00800           0
      4194 MEMB     31       POPS     H17S     HAL2     0.900000E-01   1.00800           0
      4195 MEMB     31       POPS     C218     CTL3    -0.270000       12.0110           0
      4196 MEMB     31       POPS     H18R     HAL3     0.900000E-01   1.00800           0
      4197 MEMB     31       POPS     H18S     HAL3     0.900000E-01   1.00800           0
      4198 MEMB     31       POPS     H18T     HAL3     0.900000E-01   1.00800           0
      4199 MEMB     31       POPS     C33      CTL2    -0.180000       12.0110           0
      4200 MEMB     31       POPS     H3X      HAL2     0.900000E-01   1.00800           0
      4201 MEMB     31       POPS     H3Y      HAL2     0.900000E-01   1.00800           0
      4202 MEMB     31       POPS     C34      CTL2    -0.180000       12.0110           0
      4203 MEMB     31       POPS     H4X      HAL2     0.900000E-01   1.00800           0
      4204 MEMB     31       POPS     H4Y      HAL2     0.900000E-01   1.00800           0
      4205 MEMB     31       POPS     C35      CTL2    -0.180000       12.0110           0
      4206 MEMB     31       POPS     H5X      HAL2     0.900000E-01   1.00800           0
      4207 MEMB     31       POPS     H5Y      HAL2     0.900000E-01   1.00800           0
      4208 MEMB     31       POPS     C36      CTL2    -0.180000       12.0110           0
      4209 MEMB     31       POPS     H6X      HAL2     0.900000E-01   1.00800           0
      4210 MEMB     31       POPS     H6Y      HAL2     0.900000E-01   1.00800           0
      4211 MEMB     31       POPS     C37      CTL2    -0.180000       12.0110           0
      4212 MEMB     31       POPS     H7X      HAL2     0.900000E-01   1.00800           0
      4213 MEMB     31       POPS     H7Y      HAL2     0.900000E-01   1.00800           0
      4214 MEMB     31       POPS     C38      CTL2    -0.180000       12.0110           0
      4215 MEMB     31       POPS     H8X      HAL2     0.900000E-01   1.00800           0
      4216 MEMB     31       POPS     H8Y      HAL2     0.900000E-01   1.00800           0
      4217 MEMB     31       POPS     C39      CTL2    -0.180000       12.0110           0
      4218 MEMB     31       POPS     H9X      HAL2     0.900000E-01   1.00800           0
      4219 MEMB     31       POPS     H9Y      HAL2     0.900000E-01   1.00800           0
      4220 MEMB     31       POPS     C310     CTL2    -0.180000       12.0110           0
      4221 MEMB     31       POPS     H10X     HAL2     0.900000E-01   1.00800           0
      4222 MEMB     31       POPS     H10Y     HAL2     0.900000E-01   1.00800           0
      4223 MEMB     31       POPS     C311     CTL2    -0.180000       12.0110           0
      4224 MEMB     31       POPS     H11X     HAL2     0.900000E-01   1.00800           0
      4225 MEMB     31       POPS     H11Y     HAL2     0.900000E-01   1.00800           0
      4226 MEMB     31       POPS     C312     CTL2    -0.180000       12.0110           0
      4227 MEMB     31       POPS     H12X     HAL2     0.900000E-01   1.00800           0
      4228 MEMB     31       POPS     H12Y     HAL2     0.900000E-01   1.00800           0
      4229 MEMB     31       POPS     C313     CTL2    -0.180000       12.0110           0
      4230 MEMB     31       POPS     H13X     HAL2     0.900000E-01   1.00800           0
      4231 MEMB     31       POPS     H13Y     HAL2     0.900000E-01   1.00800           0
      4232 MEMB     31       POPS     C314     CTL2    -0.180000       12.0110           0
      4233 MEMB     31       POPS     H14X     HAL2     0.900000E-01   1.00800           0
      4234 MEMB     31       POPS     H14Y     HAL2     0.900000E-01   1.00800           0
      4235 MEMB     31       POPS     C315     CTL2    -0.180000       12.0110           0
      4236 MEMB     31       POPS     H15X     HAL2     0.900000E-01   1.00800           0
      4237 MEMB     31       POPS     H15Y     HAL2     0.900000E-01   1.00800           0
      4238 MEMB     31       POPS     C316     CTL3    -0.270000       12.0110           0
      4239 MEMB     31       POPS     H16X     HAL3     0.900000E-01   1.00800           0
      4240 MEMB     31       POPS     H16Y     HAL3     0.900000E-01   1.00800           0
      4241 MEMB     31       POPS     H16Z     HAL3     0.900000E-01   1.00800           0
      4242 MEMB     32       POPC     N        NTL     -0.600000       14.0070           0
      4243 MEMB     32       POPC     C12      CTL2    -0.100000       12.0110           0
      4244 MEMB     32       POPC     H12A     HL       0.250000       1.00800           0
      4245 MEMB     32       POPC     H12B     HL       0.250000       1.00800           0
      4246 MEMB     32       POPC     C13      CTL5    -0.350000       12.0110           0
      4247 MEMB     32       POPC     H13A     HL       0.250000       1.00800           0
      4248 MEMB     32       POPC     H13B     HL       0.250000       1.00800           0
      4249 MEMB     32       POPC     H13C     HL       0.250000       1.00800           0
      4250 MEMB     32       POPC     C14      CTL5    -0.350000       12.0110           0
      4251 MEMB     32       POPC     H14A     HL       0.250000       1.00800           0
      4252 MEMB     32       POPC     H14B     HL       0.250000       1.00800           0
      4253 MEMB     32       POPC     H14C     HL       0.250000       1.00800           0
      4254 MEMB     32       POPC     C15      CTL5    -0.350000       12.0110           0
      4255 MEMB     32       POPC     H15A     HL       0.250000       1.00800           0
      4256 MEMB     32       POPC     H15B     HL       0.250000       1.00800           0
      4257 MEMB     32       POPC     H15C     HL       0.250000       1.00800           0
      4258 MEMB     32       POPC     C11      CTL2    -0.800000E-01   12.0110           0
      4259 MEMB     32       POPC     H11A     HAL2     0.900000E-01   1.00800           0
      4260 MEMB     32       POPC     H11B     HAL2     0.900000E-01   1.00800           0
      4261 MEMB     32       POPC     P        PL       1.500000       30.9740           0
      4262 MEMB     32       POPC     O13      O2L     -0.780000       15.9994           0
      4263 MEMB     32       POPC     O14      O2L     -0.780000       15.9994           0
      4264 MEMB     32       POPC     O12      OSLP    -0.570000       15.9994           0
      4265 MEMB     32       POPC     O11      OSLP    -0.570000       15.9994           0
      4266 MEMB     32       POPC     C1       CTL2    -0.800000E-01   12.0110           0
      4267 MEMB     32       POPC     HA       HAL2     0.900000E-01   1.00800           0
      4268 MEMB     32       POPC     HB       HAL2     0.900000E-01   1.00800           0
      4269 MEMB     32       POPC     C2       CTL1     0.170000       12.0110           0
      4270 MEMB     32       POPC     HS       HAL1     0.900000E-01   1.00800           0
      4271 MEMB     32       POPC     O21      OSL     -0.490000       15.9994           0
      4272 MEMB     32       POPC     C21      CL       0.900000       12.0110           0
      4273 MEMB     32       POPC     O22      OBL     -0.630000       15.9994           0
      4274 MEMB     32       POPC     C22      CTL2    -0.220000       12.0110           0
      4275 MEMB     32       POPC     H2R      HAL2     0.900000E-01   1.00800           0
      4276 MEMB     32       POPC     H2S      HAL2     0.900000E-01   1.00800           0
      4277 MEMB     32       POPC     C3       CTL2     0.800000E-01   12.0110           0
      4278 MEMB     32       POPC     HX       HAL2     0.900000E-01   1.00800           0
      4279 MEMB     32       POPC     HY       HAL2     0.900000E-01   1.00800           0
      4280 MEMB     32       POPC     O31      OSL     -0.490000       15.9994           0
      4281 MEMB     32       POPC     C31      CL       0.900000       12.0110           0
      4282 MEMB     32       POPC     O32      OBL     -0.630000       15.9994           0
      4283 MEMB     32       POPC     C32      CTL2    -0.220000       12.0110           0
      4284 MEMB     32       POPC     H2X      HAL2     0.900000E-01   1.00800           0
      4285 MEMB     32       POPC     H2Y      HAL2     0.900000E-01   1.00800           0
      4286 MEMB     32       POPC     C23      CTL2    -0.180000       12.0110           0
      4287 MEMB     32       POPC     H3R      HAL2     0.900000E-01   1.00800           0
      4288 MEMB     32       POPC     H3S      HAL2     0.900000E-01   1.00800           0
      4289 MEMB     32       POPC     C24      CTL2    -0.180000       12.0110           0
      4290 MEMB     32       POPC     H4R      HAL2     0.900000E-01   1.00800           0
      4291 MEMB     32       POPC     H4S      HAL2     0.900000E-01   1.00800           0
      4292 MEMB     32       POPC     C25      CTL2    -0.180000       12.0110           0
      4293 MEMB     32       POPC     H5R      HAL2     0.900000E-01   1.00800           0
      4294 MEMB     32       POPC     H5S      HAL2     0.900000E-01   1.00800           0
      4295 MEMB     32       POPC     C26      CTL2    -0.180000       12.0110           0
      4296 MEMB     32       POPC     H6R      HAL2     0.900000E-01   1.00800           0
      4297 MEMB     32       POPC     H6S      HAL2     0.900000E-01   1.00800           0
      4298 MEMB     32       POPC     C27      CTL2    -0.180000       12.0110           0
      4299 MEMB     32       POPC     H7R      HAL2     0.900000E-01   1.00800           0
      4300 MEMB     32       POPC     H7S      HAL2     0.900000E-01   1.00800           0
      4301 MEMB     32       POPC     C28      CTL2    -0.180000       12.0110           0
      4302 MEMB     32       POPC     H8R      HAL2     0.900000E-01   1.00800           0
      4303 MEMB     32       POPC     H8S      HAL2     0.900000E-01   1.00800           0
      4304 MEMB     32       POPC     C29      CEL1    -0.150000       12.0110           0
      4305 MEMB     32       POPC     H91      HEL1     0.150000       1.00800           0
      4306 MEMB     32       POPC     C210     CEL1    -0.150000       12.0110           0
      4307 MEMB     32       POPC     H101     HEL1     0.150000       1.00800           0
      4308 MEMB     32       POPC     C211     CTL2    -0.180000       12.0110           0
      4309 MEMB     32       POPC     H11R     HAL2     0.900000E-01   1.00800           0
      4310 MEMB     32       POPC     H11S     HAL2     0.900000E-01   1.00800           0
      4311 MEMB     32       POPC     C212     CTL2    -0.180000       12.0110           0
      4312 MEMB     32       POPC     H12R     HAL2     0.900000E-01   1.00800           0
      4313 MEMB     32       POPC     H12S     HAL2     0.900000E-01   1.00800           0
      4314 MEMB     32       POPC     C213     CTL2    -0.180000       12.0110           0
      4315 MEMB     32       POPC     H13R     HAL2     0.900000E-01   1.00800           0
      4316 MEMB     32       POPC     H13S     HAL2     0.900000E-01   1.00800           0
      4317 MEMB     32       POPC     C214     CTL2    -0.180000       12.0110           0
      4318 MEMB     32       POPC     H14R     HAL2     0.900000E-01   1.00800           0
      4319 MEMB     32       POPC     H14S     HAL2     0.900000E-01   1.00800           0
      4320 MEMB     32       POPC     C215     CTL2    -0.180000       12.0110           0
      4321 MEMB     32       POPC     H15R     HAL2     0.900000E-01   1.00800           0
      4322 MEMB     32       POPC     H15S     HAL2     0.900000E-01   1.00800           0
      4323 MEMB     32       POPC     C216     CTL2    -0.180000       12.0110           0
      4324 MEMB     32       POPC     H16R     HAL2     0.900000E-01   1.00800           0
      4325 MEMB     32       POPC     H16S     HAL2     0.900000E-01   1.00800           0
      4326 MEMB     32       POPC     C217     CTL2    -0.180000       12.0110           0
      4327 MEMB     32       POPC     H17R     HAL2     0.900000E-01   1.00800           0
      4328 MEMB     32       POPC     H17S     HAL2     0.900000E-01   1.00800           0
      4329 MEMB     32       POPC     C218     CTL3    -0.270000       12.0110           0
      4330 MEMB     32       POPC     H18R     HAL3     0.900000E-01   1.00800           0
      4331 MEMB     32       POPC     H18S     HAL3     0.900000E-01   1.00800           0
      4332 MEMB     32       POPC     H18T     HAL3     0.900000E-01   1.00800           0
      4333 MEMB     32       POPC     C33      CTL2    -0.180000       12.0110           0
      4334 MEMB     32       POPC     H3X      HAL2     0.900000E-01   1.00800           0
      4335 MEMB     32       POPC     H3Y      HAL2     0.900000E-01   1.00800           0
      4336 MEMB     32       POPC     C34      CTL2    -0.180000       12.0110           0
      4337 MEMB     32       POPC     H4X      HAL2     0.900000E-01   1.00800           0
      4338 MEMB     32       POPC     H4Y      HAL2     0.900000E-01   1.00800           0
      4339 MEMB     32       POPC     C35      CTL2    -0.180000       12.0110           0
      4340 MEMB     32       POPC     H5X      HAL2     0.900000E-01   1.00800           0
      4341 MEMB     32       POPC     H5Y      HAL2     0.900000E-01   1.00800           0
      4342 MEMB     32       POPC     C36      CTL2    -0.180000       12.0110           0
      4343 MEMB     32       POPC     H6X      HAL2     0.900000E-01   1.00800           0
      4344 MEMB     32       POPC     H6Y      HAL2     0.900000E-01   1.00800           0
      4345 MEMB     32       POPC     C37      CTL2    -0.180000       12.0110           0
      4346 MEMB     32       POPC     H7X      HAL2     0.900000E-01   1.00800           0
      4347 MEMB     32       POPC     H7Y      HAL2     0.900000E-01   1.00800           0
      4348 MEMB     32       POPC     C38      CTL2    -0.180000       12.0110           0
      4349 MEMB     32       POPC     H8X      HAL2     0.900000E-01   1.00800           0
      4350 MEMB     32       POPC     H8Y      HAL2     0.900000E-01   1.00800           0
      4351 MEMB     32       POPC     C39      CTL2    -0.180000       12.0110           0
      4352 MEMB     32       POPC     H9X      HAL2     0.900000E-01   1.00800           0
      4353 MEMB     32       POPC     H9Y      HAL2     0.900000E-01   1.00800           0
      4354 MEMB     32       POPC     C310     CTL2    -0.180000       12.0110           0
      4355 MEMB     32       POPC     H10X     HAL2     0.900000E-01   1.00800           0
      4356 MEMB     32       POPC     H10Y     HAL2     0.900000E-01   1.00800           0
      4357 MEMB     32       POPC     C311     CTL2    -0.180000       12.0110           0
      4358 MEMB     32       POPC     H11X     HAL2     0.900000E-01   1.00800           0
      4359 MEMB     32       POPC     H11Y     HAL2     0.900000E-01   1.00800           0
      4360 MEMB     32       POPC     C312     CTL2    -0.180000       12.0110           0
      4361 MEMB     32       POPC     H12X     HAL2     0.900000E-01   1.00800           0
      4362 MEMB     32       POPC     H12Y     HAL2     0.900000E-01   1.00800           0
      4363 MEMB     32       POPC     C313     CTL2    -0.180000       12.0110           0
      4364 MEMB     32       POPC     H13X     HAL2     0.900000E-01   1.00800           0
      4365 MEMB     32       POPC     H13Y     HAL2     0.900000E-01   1.00800           0
      4366 MEMB     32       POPC     C314     CTL2    -0.180000       12.0110           0
      4367 MEMB     32       POPC     H14X     HAL2     0.900000E-01   1.00800           0
      4368 MEMB     32       POPC     H14Y     HAL2     0.900000E-01   1.00800           0
      4369 MEMB     32       POPC     C315     CTL2    -0.180000       12.0110           0
      4370 MEMB     32       POPC     H15X     HAL2     0.900000E-01   1.00800           0
      4371 MEMB     32       POPC     H15Y     HAL2     0.900000E-01   1.00800           0
      4372 MEMB     32       POPC     C316     CTL3    -0.270000       12.0110           0
      4373 MEMB     32       POPC     H16X     HAL3     0.900000E-01   1.00800           0
      4374 MEMB     32       POPC     H16Y     HAL3     0.900000E-01   1.00800           0
      4375 MEMB     32       POPC     H16Z     HAL3     0.900000E-01   1.00800           0
      4376 MEMB     33       POPC     N        NTL     -0.600000       14.0070           0
      4377 MEMB     33       POPC     C12      CTL2    -0.100000       12.0110           0
      4378 MEMB     33       POPC     H12A     HL       0.250000       1.00800           0
      4379 MEMB     33       POPC     H12B     HL       0.250000       1.00800           0
      4380 MEMB     33       POPC     C13      CTL5    -0.350000       12.0110           0
      4381 MEMB     33       POPC     H13A     HL       0.250000       1.00800           0
      4382 MEMB     33       POPC     H13B     HL       0.250000       1.00800           0
      4383 MEMB     33       POPC     H13C     HL       0.250000       1.00800           0
      4384 MEMB     33       POPC     C14      CTL5    -0.350000       12.0110           0
      4385 MEMB     33       POPC     H14A     HL       0.250000       1.00800           0
      4386 MEMB     33       POPC     H14B     HL       0.250000       1.00800           0
      4387 MEMB     33       POPC     H14C     HL       0.250000       1.00800           0
      4388 MEMB     33       POPC     C15      CTL5    -0.350000       12.0110           0
      4389 MEMB     33       POPC     H15A     HL       0.250000       1.00800           0
      4390 MEMB     33       POPC     H15B     HL       0.250000       1.00800           0
      4391 MEMB     33       POPC     H15C     HL       0.250000       1.00800           0
      4392 MEMB     33       POPC     C11      CTL2    -0.800000E-01   12.0110           0
      4393 MEMB     33       POPC     H11A     HAL2     0.900000E-01   1.00800           0
      4394 MEMB     33       POPC     H11B     HAL2     0.900000E-01   1.00800           0
      4395 MEMB     33       POPC     P        PL       1.500000       30.9740           0
      4396 MEMB     33       POPC     O13      O2L     -0.780000       15.9994           0
      4397 MEMB     33       POPC     O14      O2L     -0.780000       15.9994           0
      4398 MEMB     33       POPC     O12      OSLP    -0.570000       15.9994           0
      4399 MEMB     33       POPC     O11      OSLP    -0.570000       15.9994           0
      4400 MEMB     33       POPC     C1       CTL2    -0.800000E-01   12.0110           0
      4401 MEMB     33       POPC     HA       HAL2     0.900000E-01   1.00800           0
      4402 MEMB     33       POPC     HB       HAL2     0.900000E-01   1.00800           0
      4403 MEMB     33       POPC     C2       CTL1     0.170000       12.0110           0
      4404 MEMB     33       POPC     HS       HAL1     0.900000E-01   1.00800           0
      4405 MEMB     33       POPC     O21      OSL     -0.490000       15.9994           0
      4406 MEMB     33       POPC     C21      CL       0.900000       12.0110           0
      4407 MEMB     33       POPC     O22      OBL     -0.630000       15.9994           0
      4408 MEMB     33       POPC     C22      CTL2    -0.220000       12.0110           0
      4409 MEMB     33       POPC     H2R      HAL2     0.900000E-01   1.00800           0
      4410 MEMB     33       POPC     H2S      HAL2     0.900000E-01   1.00800           0
      4411 MEMB     33       POPC     C3       CTL2     0.800000E-01   12.0110           0
      4412 MEMB     33       POPC     HX       HAL2     0.900000E-01   1.00800           0
      4413 MEMB     33       POPC     HY       HAL2     0.900000E-01   1.00800           0
      4414 MEMB     33       POPC     O31      OSL     -0.490000       15.9994           0
      4415 MEMB     33       POPC     C31      CL       0.900000       12.0110           0
      4416 MEMB     33       POPC     O32      OBL     -0.630000       15.9994           0
      4417 MEMB     33       POPC     C32      CTL2    -0.220000       12.0110           0
      4418 MEMB     33       POPC     H2X      HAL2     0.900000E-01   1.00800           0
      4419 MEMB     33       POPC     H2Y      HAL2     0.900000E-01   1.00800           0
      4420 MEMB     33       POPC     C23      CTL2    -0.180000       12.0110           0
      4421 MEMB     33       POPC     H3R      HAL2     0.900000E-01   1.00800           0
      4422 MEMB     33       POPC     H3S      HAL2     0.900000E-01   1.00800           0
      4423 MEMB     33       POPC     C24      CTL2    -0.180000       12.0110           0
      4424 MEMB     33       POPC     H4R      HAL2     0.900000E-01   1.00800           0
      4425 MEMB     33       POPC     H4S      HAL2     0.900000E-01   1.00800           0
      4426 MEMB     33       POPC     C25      CTL2    -0.180000       12.0110           0
      4427 MEMB     33       POPC     H5R      HAL2     0.900000E-01   1.00800           0
      4428 MEMB     33       POPC     H5S      HAL2     0.900000E-01   1.00800           0
      4429 MEMB     33       POPC     C26      CTL2    -0.180000       12.0110           0
      4430 MEMB     33       POPC     H6R      HAL2     0.900000E-01   1.00800           0
      4431 MEMB     33       POPC     H6S      HAL2     0.900000E-01   1.00800           0
      4432 MEMB     33       POPC     C27      CTL2    -0.180000       12.0110           0
      4433 MEMB     33       POPC     H7R      HAL2     0.900000E-01   1.00800           0
      4434 MEMB     33       POPC     H7S      HAL2     0.900000E-01   1.00800           0
      4435 MEMB     33       POPC     C28      CTL2    -0.180000       12.0110           0
      4436 MEMB     33       POPC     H8R      HAL2     0.900000E-01   1.00800           0
      4437 MEMB     33       POPC     H8S      HAL2     0.900000E-01   1.00800           0
      4438 MEMB     33       POPC     C29      CEL1    -0.150000       12.0110           0
      4439 MEMB     33       POPC     H91      HEL1     0.150000       1.00800           0
      4440 MEMB     33       POPC     C210     CEL1    -0.150000       12.0110           0
      4441 MEMB     33       POPC     H101     HEL1     0.150000       1.00800           0
      4442 MEMB     33       POPC     C211     CTL2    -0.180000       12.0110           0
      4443 MEMB     33       POPC     H11R     HAL2     0.900000E-01   1.00800           0
      4444 MEMB     33       POPC     H11S     HAL2     0.900000E-01   1.00800           0
      4445 MEMB     33       POPC     C212     CTL2    -0.180000       12.0110           0
      4446 MEMB     33       POPC     H12R     HAL2     0.900000E-01   1.00800           0
      4447 MEMB     33       POPC     H12S     HAL2     0.900000E-01   1.00800           0
      4448 MEMB     33       POPC     C213     CTL2    -0.180000       12.0110           0
      4449 MEMB     33       POPC     H13R     HAL2     0.900000E-01   1.00800           0
      4450 MEMB     33       POPC     H13S     HAL2     0.900000E-01   1.00800           0
      4451 MEMB     33       POPC     C214     CTL2    -0.180000       12.0110           0
      4452 MEMB     33       POPC     H14R     HAL2     0.900000E-01   1.00800           0
      4453 MEMB     33       POPC     H14S     HAL2     0.900000E-01   1.00800           0
      4454 MEMB     33       POPC     C215     CTL2    -0.180000       12.0110           0
      4455 MEMB     33       POPC     H15R     HAL2     0.900000E-01   1.00800           0
      4456 MEMB     33       POPC     H15S     HAL2     0.900000E-01   1.00800           0
      4457 MEMB     33       POPC     C216     CTL2    -0.180000       12.0110           0
      4458 MEMB     33       POPC     H16R     HAL2     0.900000E-01   1.00800           0
      4459 MEMB     33       POPC     H16S     HAL2     0.900000E-01   1.00800           0
      4460 MEMB     33       POPC     C217     CTL2    -0.180000       12.0110           0
      4461 MEMB     33       POPC     H17R     HAL2     0.900000E-01   1.00800           0
      4462 MEMB     33       POPC     H17S     HAL2     0.900000E-01   1.00800           0
      4463 MEMB     33       POPC     C218     CTL3    -0.270000       12.0110           0
      4464 MEMB     33       POPC     H18R     HAL3     0.900000E-01   1.00800           0
      4465 MEMB     33       POPC     H18S     HAL3     0.900000E-01   1.00800           0
      4466 MEMB     33       POPC     H18T     HAL3     0.900000E-01   1.00800           0
      4467 MEMB     33       POPC     C33      CTL2    -0.180000       12.0110           0
      4468 MEMB     33       POPC     H3X      HAL2     0.900000E-01   1.00800           0
      4469 MEMB     33       POPC     H3Y      HAL2     0.900000E-01   1.00800           0
      4470 MEMB     33       POPC     C34      CTL2    -0.180000       12.0110           0
      4471 MEMB     33       POPC     H4X      HAL2     0.900000E-01   1.00800           0
      4472 MEMB     33       POPC     H4Y      HAL2     0.900000E-01   1.00800           0
      4473 MEMB     33       POPC     C35      CTL2    -0.180000       12.0110           0
      4474 MEMB     33       POPC     H5X      HAL2     0.900000E-01   1.00800           0
      4475 MEMB     33       POPC     H5Y      HAL2     0.900000E-01   1.00800           0
      4476 MEMB     33       POPC     C36      CTL2    -0.180000       12.0110           0
      4477 MEMB     33       POPC     H6X      HAL2     0.900000E-01   1.00800           0
      4478 MEMB     33       POPC     H6Y      HAL2     0.900000E-01   1.00800           0
      4479 MEMB     33       POPC     C37      CTL2    -0.180000       12.0110           0
      4480 MEMB     33       POPC     H7X      HAL2     0.900000E-01   1.00800           0
      4481 MEMB     33       POPC     H7Y      HAL2     0.900000E-01   1.00800           0
      4482 MEMB     33       POPC     C38      CTL2    -0.180000       12.0110           0
      4483 MEMB     33       POPC     H8X      HAL2     0.900000E-01   1.00800           0
      4484 MEMB     33       POPC     H8Y      HAL2     0.900000E-01   1.00800           0
      4485 MEMB     33       POPC     C39      CTL2    -0.180000       12.0110           0
      4486 MEMB     33       POPC     H9X      HAL2     0.900000E-01   1.00800           0
      4487 MEMB     33       POPC     H9Y      HAL2     0.900000E-01   1.00800           0
      4488 MEMB     33       POPC     C310     CTL2    -0.180000       12.0110           0
      4489 MEMB     33       POPC     H10X     HAL2     0.900000E-01   1.00800           0
      4490 MEMB     33       POPC     H10Y     HAL2     0.900000E-01   1.00800           0
      4491 MEMB     33       POPC     C311     CTL2    -0.180000       12.0110           0
      4492 MEMB     33       POPC     H11X     HAL2     0.900000E-01   1.00800           0
      4493 MEMB     33       POPC     H11Y     HAL2     0.900000E-01   1.00800           0
      4494 MEMB     33       POPC     C312     CTL2    -0.180000       12.0110           0
      4495 MEMB     33       POPC     H12X     HAL2     0.900000E-01   1.00800           0
      4496 MEMB     33       POPC     H12Y     HAL2     0.900000E-01   1.00800           0
      4497 MEMB     33       POPC     C313     CTL2    -0.180000       12.0110           0
      4498 MEMB     33       POPC     H13X     HAL2     0.900000E-01   1.00800           0
      4499 MEMB     33       POPC     H13Y     HAL2     0.900000E-01   1.00800           0
      4500 MEMB     33       POPC     C314     CTL2    -0.180000       12.0110           0
      4501 MEMB     33       POPC     H14X     HAL2     0.900000E-01   1.00800           0
      4502 MEMB     33       POPC     H14Y     HAL2     0.900000E-01   1.00800           0
      4503 MEMB     33       POPC     C315     CTL2    -0.180000       12.0110           0
      4504 MEMB     33       POPC     H15X     HAL2     0.900000E-01   1.00800           0
      4505 MEMB     33       POPC     H15Y     HAL2     0.900000E-01   1.00800           0
      4506 MEMB     33       POPC     C316     CTL3    -0.270000       12.0110           0
      4507 MEMB     33       POPC     H16X     HAL3     0.900000E-01   1.00800           0
      4508 MEMB     33       POPC     H16Y     HAL3     0.900000E-01   1.00800           0
      4509 MEMB     33       POPC     H16Z     HAL3     0.900000E-01   1.00800           0
      4510 MEMB     34       POPC     N        NTL     -0.600000       14.0070           0
      4511 MEMB     34       POPC     C12      CTL2    -0.100000       12.0110           0
      4512 MEMB     34       POPC     H12A     HL       0.250000       1.00800           0
      4513 MEMB     34       POPC     H12B     HL       0.250000       1.00800           0
      4514 MEMB     34       POPC     C13      CTL5    -0.350000       12.0110           0
      4515 MEMB     34       POPC     H13A     HL       0.250000       1.00800           0
      4516 MEMB     34       POPC     H13B     HL       0.250000       1.00800           0
      4517 MEMB     34       POPC     H13C     HL       0.250000       1.00800           0
      4518 MEMB     34       POPC     C14      CTL5    -0.350000       12.0110           0
      4519 MEMB     34       POPC     H14A     HL       0.250000       1.00800           0
      4520 MEMB     34       POPC     H14B     HL       0.250000       1.00800           0
      4521 MEMB     34       POPC     H14C     HL       0.250000       1.00800           0
      4522 MEMB     34       POPC     C15      CTL5    -0.350000       12.0110           0
      4523 MEMB     34       POPC     H15A     HL       0.250000       1.00800           0
      4524 MEMB     34       POPC     H15B     HL       0.250000       1.00800           0
      4525 MEMB     34       POPC     H15C     HL       0.250000       1.00800           0
      4526 MEMB     34       POPC     C11      CTL2    -0.800000E-01   12.0110           0
      4527 MEMB     34       POPC     H11A     HAL2     0.900000E-01   1.00800           0
      4528 MEMB     34       POPC     H11B     HAL2     0.900000E-01   1.00800           0
      4529 MEMB     34       POPC     P        PL       1.500000       30.9740           0
      4530 MEMB     34       POPC     O13      O2L     -0.780000       15.9994           0
      4531 MEMB     34       POPC     O14      O2L     -0.780000       15.9994           0
      4532 MEMB     34       POPC     O12      OSLP    -0.570000       15.9994           0
      4533 MEMB     34       POPC     O11      OSLP    -0.570000       15.9994           0
      4534 MEMB     34       POPC     C1       CTL2    -0.800000E-01   12.0110           0
      4535 MEMB     34       POPC     HA       HAL2     0.900000E-01   1.00800           0
      4536 MEMB     34       POPC     HB       HAL2     0.900000E-01   1.00800           0
      4537 MEMB     34       POPC     C2       CTL1     0.170000       12.0110           0
      4538 MEMB     34       POPC     HS       HAL1     0.900000E-01   1.00800           0
      4539 MEMB     34       POPC     O21      OSL     -0.490000       15.9994           0
      4540 MEMB     34       POPC     C21      CL       0.900000       12.0110           0
      4541 MEMB     34       POPC     O22      OBL     -0.630000       15.9994           0
      4542 MEMB     34       POPC     C22      CTL2    -0.220000       12.0110           0
      4543 MEMB     34       POPC     H2R      HAL2     0.900000E-01   1.00800           0
      4544 MEMB     34       POPC     H2S      HAL2     0.900000E-01   1.00800           0
      4545 MEMB     34       POPC     C3       CTL2     0.800000E-01   12.0110           0
      4546 MEMB     34       POPC     HX       HAL2     0.900000E-01   1.00800           0
      4547 MEMB     34       POPC     HY       HAL2     0.900000E-01   1.00800           0
      4548 MEMB     34       POPC     O31      OSL     -0.490000       15.9994           0
      4549 MEMB     34       POPC     C31      CL       0.900000       12.0110           0
      4550 MEMB     34       POPC     O32      OBL     -0.630000       15.9994           0
      4551 MEMB     34       POPC     C32      CTL2    -0.220000       12.0110           0
      4552 MEMB     34       POPC     H2X      HAL2     0.900000E-01   1.00800           0
      4553 MEMB     34       POPC     H2Y      HAL2     0.900000E-01   1.00800           0
      4554 MEMB     34       POPC     C23      CTL2    -0.180000       12.0110           0
      4555 MEMB     34       POPC     H3R      HAL2     0.900000E-01   1.00800           0
      4556 MEMB     34       POPC     H3S      HAL2     0.900000E-01   1.00800           0
      4557 MEMB     34       POPC     C24      CTL2    -0.180000       12.0110           0
      4558 MEMB     34       POPC     H4R      HAL2     0.900000E-01   1.00800           0
      4559 MEMB     34       POPC     H4S      HAL2     0.900000E-01   1.00800           0
      4560 MEMB     34       POPC     C25      CTL2    -0.180000       12.0110           0
      4561 MEMB     34       POPC     H5R      HAL2     0.900000E-01   1.00800           0
      4562 MEMB     34       POPC     H5S      HAL2     0.900000E-01   1.00800           0
      4563 MEMB     34       POPC     C26      CTL2    -0.180000       12.0110           0
      4564 MEMB     34       POPC     H6R      HAL2     0.900000E-01   1.00800           0
      4565 MEMB     34       POPC     H6S      HAL2     0.900000E-01   1.00800           0
      4566 MEMB     34       POPC     C27      CTL2    -0.180000       12.0110           0
      4567 MEMB     34       POPC     H7R      HAL2     0.900000E-01   1.00800           0
      4568 MEMB     34       POPC     H7S      HAL2     0.900000E-01   1.00800           0
      4569 MEMB     34       POPC     C28      CTL2    -0.180000       12.0110           0
      4570 MEMB     34       POPC     H8R      HAL2     0.900000E-01   1.00800           0
      4571 MEMB     34       POPC     H8S      HAL2     0.900000E-01   1.00800           0
      4572 MEMB     34       POPC     C29      CEL1    -0.150000       12.0110           0
      4573 MEMB     34       POPC     H91      HEL1     0.150000       1.00800           0
      4574 MEMB     34       POPC     C210     CEL1    -0.150000       12.0110           0
      4575 MEMB     34       POPC     H101     HEL1     0.150000       1.00800           0
      4576 MEMB     34       POPC     C211     CTL2    -0.180000       12.0110           0
      4577 MEMB     34       POPC     H11R     HAL2     0.900000E-01   1.00800           0
      4578 MEMB     34       POPC     H11S     HAL2     0.900000E-01   1.00800           0
      4579 MEMB     34       POPC     C212     CTL2    -0.180000       12.0110           0
      4580 MEMB     34       POPC     H12R     HAL2     0.900000E-01   1.00800           0
      4581 MEMB     34       POPC     H12S     HAL2     0.900000E-01   1.00800           0
      4582 MEMB     34       POPC     C213     CTL2    -0.180000       12.0110           0
      4583 MEMB     34       POPC     H13R     HAL2     0.900000E-01   1.00800           0
      4584 MEMB     34       POPC     H13S     HAL2     0.900000E-01   1.00800           0
      4585 MEMB     34       POPC     C214     CTL2    -0.180000       12.0110           0
      4586 MEMB     34       POPC     H14R     HAL2     0.900000E-01   1.00800           0
      4587 MEMB     34       POPC     H14S     HAL2     0.900000E-01   1.00800           0
      4588 MEMB     34       POPC     C215     CTL2    -0.180000       12.0110           0
      4589 MEMB     34       POPC     H15R     HAL2     0.900000E-01   1.00800           0
      4590 MEMB     34       POPC     H15S     HAL2     0.900000E-01   1.00800           0
      4591 MEMB     34       POPC     C216     CTL2    -0.180000       12.0110           0
      4592 MEMB     34       POPC     H16R     HAL2     0.900000E-01   1.00800           0
      4593 MEMB     34       POPC     H16S     HAL2     0.900000E-01   1.00800           0
      4594 MEMB     34       POPC     C217     CTL2    -0.180000       12.0110           0
      4595 MEMB     34       POPC     H17R     HAL2     0.900000E-01   1.00800           0
      4596 MEMB     34       POPC     H17S     HAL2     0.900000E-01   1.00800           0
      4597 MEMB     34       POPC     C218     CTL3    -0.270000       12.0110           0
      4598 MEMB     34       POPC     H18R     HAL3     0.900000E-01   1.00800           0
      4599 MEMB     34       POPC     H18S     HAL3     0.900000E-01   1.00800           0
      4600 MEMB     34       POPC     H18T     HAL3     0.900000E-01   1.00800           0
      4601 MEMB     34       POPC     C33      CTL2    -0.180000       12.0110           0
      4602 MEMB     34       POPC     H3X      HAL2     0.900000E-01   1.00800           0
      4603 MEMB     34       POPC     H3Y      HAL2     0.900000E-01   1.00800           0
      4604 MEMB     34       POPC     C34      CTL2    -0.180000       12.0110           0
      4605 MEMB     34       POPC     H4X      HAL2     0.900000E-01   1.00800           0
      4606 MEMB     34       POPC     H4Y      HAL2     0.900000E-01   1.00800           0
      4607 MEMB     34       POPC     C35      CTL2    -0.180000       12.0110           0
      4608 MEMB     34       POPC     H5X      HAL2     0.900000E-01   1.00800           0
      4609 MEMB     34       POPC     H5Y      HAL2     0.900000E-01   1.00800           0
      4610 MEMB     34       POPC     C36      CTL2    -0.180000       12.0110           0
      4611 MEMB     34       POPC     H6X      HAL2     0.900000E-01   1.00800           0
      4612 MEMB     34       POPC     H6Y      HAL2     0.900000E-01   1.00800           0
      4613 MEMB     34       POPC     C37      CTL2    -0.180000       12.0110           0
      4614 MEMB     34       POPC     H7X      HAL2     0.900000E-01   1.00800           0
      4615 MEMB     34       POPC     H7Y      HAL2     0.900000E-01   1.00800           0
      4616 MEMB     34       POPC     C38      CTL2    -0.180000       12.0110           0
      4617 MEMB     34       POPC     H8X      HAL2     0.900000E-01   1.00800           0
      4618 MEMB     34       POPC     H8Y      HAL2     0.900000E-01   1.00800           0
      4619 MEMB     34       POPC     C39      CTL2    -0.180000       12.0110           0
      4620 MEMB     34       POPC     H9X      HAL2     0.900000E-01   1.00800           0
      4621 MEMB     34       POPC     H9Y      HAL2     0.900000E-01   1.00800           0
      4622 MEMB     34       POPC     C310     CTL2    -0.180000       12.0110           0
      4623 MEMB     34       POPC     H10X     HAL2     0.900000E-01   1.00800           0
      4624 MEMB     34       POPC     H10Y     HAL2     0.900000E-01   1.00800           0
      4625 MEMB     34       POPC     C311     CTL2    -0.180000       12.0110           0
      4626 MEMB     34       POPC     H11X     HAL2     0.900000E-01   1.00800           0
      4627 MEMB     34       POPC     H11Y     HAL2     0.900000E-01   1.00800           0
      4628 MEMB     34       POPC     C312     CTL2    -0.180000       12.0110           0
      4629 MEMB     34       POPC     H12X     HAL2     0.900000E-01   1.00800           0
      4630 MEMB     34       POPC     H12Y     HAL2     0.900000E-01   1.00800           0
      4631 MEMB     34       POPC     C313     CTL2    -0.180000       12.0110           0
      4632 MEMB     34       POPC     H13X     HAL2     0.900000E-01   1.00800           0
      4633 MEMB     34       POPC     H13Y     HAL2     0.900000E-01   1.00800           0
      4634 MEMB     34       POPC     C314     CTL2    -0.180000       12.0110           0
      4635 MEMB     34       POPC     H14X     HAL2     0.900000E-01   1.00800           0
      4636 MEMB     34       POPC     H14Y     HAL2     0.900000E-01   1.00800           0
      4637 MEMB     34       POPC     C315     CTL2    -0.180000       12.0110           0
      4638 MEMB     34       POPC     H15X     HAL2     0.900000E-01   1.00800           0
      4639 MEMB     34       POPC     H15Y     HAL2     0.900000E-01   1.00800           0
      4640 MEMB     34       POPC     C316     CTL3    -0.270000       12.0110           0
      4641 MEMB     34       POPC     H16X     HAL3     0.900000E-01   1.00800           0
      4642 MEMB     34       POPC     H16Y     HAL3     0.900000E-01   1.00800           0
      4643 MEMB     34       POPC     H16Z     HAL3     0.900000E-01   1.00800           0
      4644 MEMB     35       POPS     N        NH3L    -0.300000       14.0070           0
      4645 MEMB     35       POPS     HN1      HCL      0.330000       1.00800           0
      4646 MEMB     35       POPS     HN2      HCL      0.330000       1.00800           0
      4647 MEMB     35       POPS     HN3      HCL      0.330000       1.00800           0
      4648 MEMB     35       POPS     C12      CTL1     0.210000       12.0110           0
      4649 MEMB     35       POPS     H12A     HBL      0.100000       1.00800           0
      4650 MEMB     35       POPS     C13      CCL      0.340000       12.0110           0
      4651 MEMB     35       POPS     O13A     OCL     -0.670000       15.9994           0
      4652 MEMB     35       POPS     O13B     OCL     -0.670000       15.9994           0
      4653 MEMB     35       POPS     C11      CTL2    -0.800000E-01   12.0110           0
      4654 MEMB     35       POPS     H11A     HAL2     0.900000E-01   1.00800           0
      4655 MEMB     35       POPS     H11B     HAL2     0.900000E-01   1.00800           0
      4656 MEMB     35       POPS     P        PL       1.500000       30.9740           0
      4657 MEMB     35       POPS     O13      O2L     -0.780000       15.9994           0
      4658 MEMB     35       POPS     O14      O2L     -0.780000       15.9994           0
      4659 MEMB     35       POPS     O12      OSLP    -0.570000       15.9994           0
      4660 MEMB     35       POPS     O11      OSLP    -0.570000       15.9994           0
      4661 MEMB     35       POPS     C1       CTL2    -0.800000E-01   12.0110           0
      4662 MEMB     35       POPS     HA       HAL2     0.900000E-01   1.00800           0
      4663 MEMB     35       POPS     HB       HAL2     0.900000E-01   1.00800           0
      4664 MEMB     35       POPS     C2       CTL1     0.170000       12.0110           0
      4665 MEMB     35       POPS     HS       HAL1     0.900000E-01   1.00800           0
      4666 MEMB     35       POPS     O21      OSL     -0.490000       15.9994           0
      4667 MEMB     35       POPS     C21      CL       0.900000       12.0110           0
      4668 MEMB     35       POPS     O22      OBL     -0.630000       15.9994           0
      4669 MEMB     35       POPS     C22      CTL2    -0.220000       12.0110           0
      4670 MEMB     35       POPS     H2R      HAL2     0.900000E-01   1.00800           0
      4671 MEMB     35       POPS     H2S      HAL2     0.900000E-01   1.00800           0
      4672 MEMB     35       POPS     C3       CTL2     0.800000E-01   12.0110           0
      4673 MEMB     35       POPS     HX       HAL2     0.900000E-01   1.00800           0
      4674 MEMB     35       POPS     HY       HAL2     0.900000E-01   1.00800           0
      4675 MEMB     35       POPS     O31      OSL     -0.490000       15.9994           0
      4676 MEMB     35       POPS     C31      CL       0.900000       12.0110           0
      4677 MEMB     35       POPS     O32      OBL     -0.630000       15.9994           0
      4678 MEMB     35       POPS     C32      CTL2    -0.220000       12.0110           0
      4679 MEMB     35       POPS     H2X      HAL2     0.900000E-01   1.00800           0
      4680 MEMB     35       POPS     H2Y      HAL2     0.900000E-01   1.00800           0
      4681 MEMB     35       POPS     C23      CTL2    -0.180000       12.0110           0
      4682 MEMB     35       POPS     H3R      HAL2     0.900000E-01   1.00800           0
      4683 MEMB     35       POPS     H3S      HAL2     0.900000E-01   1.00800           0
      4684 MEMB     35       POPS     C24      CTL2    -0.180000       12.0110           0
      4685 MEMB     35       POPS     H4R      HAL2     0.900000E-01   1.00800           0
      4686 MEMB     35       POPS     H4S      HAL2     0.900000E-01   1.00800           0
      4687 MEMB     35       POPS     C25      CTL2    -0.180000       12.0110           0
      4688 MEMB     35       POPS     H5R      HAL2     0.900000E-01   1.00800           0
      4689 MEMB     35       POPS     H5S      HAL2     0.900000E-01   1.00800           0
      4690 MEMB     35       POPS     C26      CTL2    -0.180000       12.0110           0
      4691 MEMB     35       POPS     H6R      HAL2     0.900000E-01   1.00800           0
      4692 MEMB     35       POPS     H6S      HAL2     0.900000E-01   1.00800           0
      4693 MEMB     35       POPS     C27      CTL2    -0.180000       12.0110           0
      4694 MEMB     35       POPS     H7R      HAL2     0.900000E-01   1.00800           0
      4695 MEMB     35       POPS     H7S      HAL2     0.900000E-01   1.00800           0
      4696 MEMB     35       POPS     C28      CTL2    -0.180000       12.0110           0
      4697 MEMB     35       POPS     H8R      HAL2     0.900000E-01   1.00800           0
      4698 MEMB     35       POPS     H8S      HAL2     0.900000E-01   1.00800           0
      4699 MEMB     35       POPS     C29      CEL1    -0.150000       12.0110           0
      4700 MEMB     35       POPS     H91      HEL1     0.150000       1.00800           0
      4701 MEMB     35       POPS     C210     CEL1    -0.150000       12.0110           0
      4702 MEMB     35       POPS     H101     HEL1     0.150000       1.00800           0
      4703 MEMB     35       POPS     C211     CTL2    -0.180000       12.0110           0
      4704 MEMB     35       POPS     H11R     HAL2     0.900000E-01   1.00800           0
      4705 MEMB     35       POPS     H11S     HAL2     0.900000E-01   1.00800           0
      4706 MEMB     35       POPS     C212     CTL2    -0.180000       12.0110           0
      4707 MEMB     35       POPS     H12R     HAL2     0.900000E-01   1.00800           0
      4708 MEMB     35       POPS     H12S     HAL2     0.900000E-01   1.00800           0
      4709 MEMB     35       POPS     C213     CTL2    -0.180000       12.0110           0
      4710 MEMB     35       POPS     H13R     HAL2     0.900000E-01   1.00800           0
      4711 MEMB     35       POPS     H13S     HAL2     0.900000E-01   1.00800           0
      4712 MEMB     35       POPS     C214     CTL2    -0.180000       12.0110           0
      4713 MEMB     35       POPS     H14R     HAL2     0.900000E-01   1.00800           0
      4714 MEMB     35       POPS     H14S     HAL2     0.900000E-01   1.00800           0
      4715 MEMB     35       POPS     C215     CTL2    -0.180000       12.0110           0
      4716 MEMB     35       POPS     H15R     HAL2     0.900000E-01   1.00800           0
      4717 MEMB     35       POPS     H15S     HAL2     0.900000E-01   1.00800           0
      4718 MEMB     35       POPS     C216     CTL2    -0.180000       12.0110           0
      4719 MEMB     35       POPS     H16R     HAL2     0.900000E-01   1.00800           0
      4720 MEMB     35       POPS     H16S     HAL2     0.900000E-01   1.00800           0
      4721 MEMB     35       POPS     C217     CTL2    -0.180000       12.0110           0
      4722 MEMB     35       POPS     H17R     HAL2     0.900000E-01   1.00800           0
      4723 MEMB     35       POPS     H17S     HAL2     0.900000E-01   1.00800           0
      4724 MEMB     35       POPS     C218     CTL3    -0.270000       12.0110           0
      4725 MEMB     35       POPS     H18R     HAL3     0.900000E-01   1.00800           0
      4726 MEMB     35       POPS     H18S     HAL3     0.900000E-01   1.00800           0
      4727 MEMB     35       POPS     H18T     HAL3     0.900000E-01   1.00800           0
      4728 MEMB     35       POPS     C33      CTL2    -0.180000       12.0110           0
      4729 MEMB     35       POPS     H3X      HAL2     0.900000E-01   1.00800           0
      4730 MEMB     35       POPS     H3Y      HAL2     0.900000E-01   1.00800           0
      4731 MEMB     35       POPS     C34      CTL2    -0.180000       12.0110           0
      4732 MEMB     35       POPS     H4X      HAL2     0.900000E-01   1.00800           0
      4733 MEMB     35       POPS     H4Y      HAL2     0.900000E-01   1.00800           0
      4734 MEMB     35       POPS     C35      CTL2    -0.180000       12.0110           0
      4735 MEMB     35       POPS     H5X      HAL2     0.900000E-01   1.00800           0
      4736 MEMB     35       POPS     H5Y      HAL2     0.900000E-01   1.00800           0
      4737 MEMB     35       POPS     C36      CTL2    -0.180000       12.0110           0
      4738 MEMB     35       POPS     H6X      HAL2     0.900000E-01   1.00800           0
      4739 MEMB     35       POPS     H6Y      HAL2     0.900000E-01   1.00800           0
      4740 MEMB     35       POPS     C37      CTL2    -0.180000       12.0110           0
      4741 MEMB     35       POPS     H7X      HAL2     0.900000E-01   1.00800           0
      4742 MEMB     35       POPS     H7Y      HAL2     0.900000E-01   1.00800           0
      4743 MEMB     35       POPS     C38      CTL2    -0.180000       12.0110           0
      4744 MEMB     35       POPS     H8X      HAL2     0.900000E-01   1.00800           0
      4745 MEMB     35       POPS     H8Y      HAL2     0.900000E-01   1.00800           0
      4746 MEMB     35       POPS     C39      CTL2    -0.180000       12.0110           0
      4747 MEMB     35       POPS     H9X      HAL2     0.900000E-01   1.00800           0
      4748 MEMB     35       POPS     H9Y      HAL2     0.900000E-01   1.00800           0
      4749 MEMB     35       POPS     C310     CTL2    -0.180000       12.0110           0
      4750 MEMB     35       POPS     H10X     HAL2     0.900000E-01   1.00800           0
      4751 MEMB     35       POPS     H10Y     HAL2     0.900000E-01   1.00800           0
      4752 MEMB     35       POPS     C311     CTL2    -0.180000       12.0110           0
      4753 MEMB     35       POPS     H11X     HAL2     0.900000E-01   1.00800           0
      4754 MEMB     35       POPS     H11Y     HAL2     0.900000E-01   1.00800           0
      4755 MEMB     35       POPS     C312     CTL2    -0.180000       12.0110           0
      4756 MEMB     35       POPS     H12X     HAL2     0.900000E-01   1.00800           0
      4757 MEMB     35       POPS     H12Y     HAL2     0.900000E-01   1.00800           0
      4758 MEMB     35       POPS     C313     CTL2    -0.180000       12.0110           0
      4759 MEMB     35       POPS     H13X     HAL2     0.900000E-01   1.00800           0
      4760 MEMB     35       POPS     H13Y     HAL2     0.900000E-01   1.00800           0
      4761 MEMB     35       POPS     C314     CTL2    -0.180000       12.0110           0
      4762 MEMB     35       POPS     H14X     HAL2     0.900000E-01   1.00800           0
      4763 MEMB     35       POPS     H14Y     HAL2     0.900000E-01   1.00800           0
      4764 MEMB     35       POPS     C315     CTL2    -0.180000       12.0110           0
      4765 MEMB     35       POPS     H15X     HAL2     0.900000E-01   1.00800           0
      4766 MEMB     35       POPS     H15Y     HAL2     0.900000E-01   1.00800           0
      4767 MEMB     35       POPS     C316     CTL3    -0.270000       12.0110           0
      4768 MEMB     35       POPS     H16X     HAL3     0.900000E-01   1.00800           0
      4769 MEMB     35       POPS     H16Y     HAL3     0.900000E-01   1.00800           0
      4770 MEMB     35       POPS     H16Z     HAL3     0.900000E-01   1.00800           0
      4771 MEMB     36       POPC     N        NTL     -0.600000       14.0070           0
      4772 MEMB     36       POPC     C12      CTL2    -0.100000       12.0110           0
      4773 MEMB     36       POPC     H12A     HL       0.250000       1.00800           0
      4774 MEMB     36       POPC     H12B     HL       0.250000       1.00800           0
      4775 MEMB     36       POPC     C13      CTL5    -0.350000       12.0110           0
      4776 MEMB     36       POPC     H13A     HL       0.250000       1.00800           0
      4777 MEMB     36       POPC     H13B     HL       0.250000       1.00800           0
      4778 MEMB     36       POPC     H13C     HL       0.250000       1.00800           0
      4779 MEMB     36       POPC     C14      CTL5    -0.350000       12.0110           0
      4780 MEMB     36       POPC     H14A     HL       0.250000       1.00800           0
      4781 MEMB     36       POPC     H14B     HL       0.250000       1.00800           0
      4782 MEMB     36       POPC     H14C     HL       0.250000       1.00800           0
      4783 MEMB     36       POPC     C15      CTL5    -0.350000       12.0110           0
      4784 MEMB     36       POPC     H15A     HL       0.250000       1.00800           0
      4785 MEMB     36       POPC     H15B     HL       0.250000       1.00800           0
      4786 MEMB     36       POPC     H15C     HL       0.250000       1.00800           0
      4787 MEMB     36       POPC     C11      CTL2    -0.800000E-01   12.0110           0
      4788 MEMB     36       POPC     H11A     HAL2     0.900000E-01   1.00800           0
      4789 MEMB     36       POPC     H11B     HAL2     0.900000E-01   1.00800           0
      4790 MEMB     36       POPC     P        PL       1.500000       30.9740           0
      4791 MEMB     36       POPC     O13      O2L     -0.780000       15.9994           0
      4792 MEMB     36       POPC     O14      O2L     -0.780000       15.9994           0
      4793 MEMB     36       POPC     O12      OSLP    -0.570000       15.9994           0
      4794 MEMB     36       POPC     O11      OSLP    -0.570000       15.9994           0
      4795 MEMB     36       POPC     C1       CTL2    -0.800000E-01   12.0110           0
      4796 MEMB     36       POPC     HA       HAL2     0.900000E-01   1.00800           0
      4797 MEMB     36       POPC     HB       HAL2     0.900000E-01   1.00800           0
      4798 MEMB     36       POPC     C2       CTL1     0.170000       12.0110           0
      4799 MEMB     36       POPC     HS       HAL1     0.900000E-01   1.00800           0
      4800 MEMB     36       POPC     O21      OSL     -0.490000       15.9994           0
      4801 MEMB     36       POPC     C21      CL       0.900000       12.0110           0
      4802 MEMB     36       POPC     O22      OBL     -0.630000       15.9994           0
      4803 MEMB     36       POPC     C22      CTL2    -0.220000       12.0110           0
      4804 MEMB     36       POPC     H2R      HAL2     0.900000E-01   1.00800           0
      4805 MEMB     36       POPC     H2S      HAL2     0.900000E-01   1.00800           0
      4806 MEMB     36       POPC     C3       CTL2     0.800000E-01   12.0110           0
      4807 MEMB     36       POPC     HX       HAL2     0.900000E-01   1.00800           0
      4808 MEMB     36       POPC     HY       HAL2     0.900000E-01   1.00800           0
      4809 MEMB     36       POPC     O31      OSL     -0.490000       15.9994           0
      4810 MEMB     36       POPC     C31      CL       0.900000       12.0110           0
      4811 MEMB     36       POPC     O32      OBL     -0.630000       15.9994           0
      4812 MEMB     36       POPC     C32      CTL2    -0.220000       12.0110           0
      4813 MEMB     36       POPC     H2X      HAL2     0.900000E-01   1.00800           0
      4814 MEMB     36       POPC     H2Y      HAL2     0.900000E-01   1.00800           0
      4815 MEMB     36       POPC     C23      CTL2    -0.180000       12.0110           0
      4816 MEMB     36       POPC     H3R      HAL2     0.900000E-01   1.00800           0
      4817 MEMB     36       POPC     H3S      HAL2     0.900000E-01   1.00800           0
      4818 MEMB     36       POPC     C24      CTL2    -0.180000       12.0110           0
      4819 MEMB     36       POPC     H4R      HAL2     0.900000E-01   1.00800           0
      4820 MEMB     36       POPC     H4S      HAL2     0.900000E-01   1.00800           0
      4821 MEMB     36       POPC     C25      CTL2    -0.180000       12.0110           0
      4822 MEMB     36       POPC     H5R      HAL2     0.900000E-01   1.00800           0
      4823 MEMB     36       POPC     H5S      HAL2     0.900000E-01   1.00800           0
      4824 MEMB     36       POPC     C26      CTL2    -0.180000       12.0110           0
      4825 MEMB     36       POPC     H6R      HAL2     0.900000E-01   1.00800           0
      4826 MEMB     36       POPC     H6S      HAL2     0.900000E-01   1.00800           0
      4827 MEMB     36       POPC     C27      CTL2    -0.180000       12.0110           0
      4828 MEMB     36       POPC     H7R      HAL2     0.900000E-01   1.00800           0
      4829 MEMB     36       POPC     H7S      HAL2     0.900000E-01   1.00800           0
      4830 MEMB     36       POPC     C28      CTL2    -0.180000       12.0110           0
      4831 MEMB     36       POPC     H8R      HAL2     0.900000E-01   1.00800           0
      4832 MEMB     36       POPC     H8S      HAL2     0.900000E-01   1.00800           0
      4833 MEMB     36       POPC     C29      CEL1    -0.150000       12.0110           0
      4834 MEMB     36       POPC     H91      HEL1     0.150000       1.00800           0
      4835 MEMB     36       POPC     C210     CEL1    -0.150000       12.0110           0
      4836 MEMB     36       POPC     H101     HEL1     0.150000       1.00800           0
      4837 MEMB     36       POPC     C211     CTL2    -0.180000       12.0110           0
      4838 MEMB     36       POPC     H11R     HAL2     0.900000E-01   1.00800           0
      4839 MEMB     36       POPC     H11S     HAL2     0.900000E-01   1.00800           0
      4840 MEMB     36       POPC     C212     CTL2    -0.180000       12.0110           0
      4841 MEMB     36       POPC     H12R     HAL2     0.900000E-01   1.00800           0
      4842 MEMB     36       POPC     H12S     HAL2     0.900000E-01   1.00800           0
      4843 MEMB     36       POPC     C213     CTL2    -0.180000       12.0110           0
      4844 MEMB     36       POPC     H13R     HAL2     0.900000E-01   1.00800           0
      4845 MEMB     36       POPC     H13S     HAL2     0.900000E-01   1.00800           0
      4846 MEMB     36       POPC     C214     CTL2    -0.180000       12.0110           0
      4847 MEMB     36       POPC     H14R     HAL2     0.900000E-01   1.00800           0
      4848 MEMB     36       POPC     H14S     HAL2     0.900000E-01   1.00800           0
      4849 MEMB     36       POPC     C215     CTL2    -0.180000       12.0110           0
      4850 MEMB     36       POPC     H15R     HAL2     0.900000E-01   1.00800           0
      4851 MEMB     36       POPC     H15S     HAL2     0.900000E-01   1.00800           0
      4852 MEMB     36       POPC     C216     CTL2    -0.180000       12.0110           0
      4853 MEMB     36       POPC     H16R     HAL2     0.900000E-01   1.00800           0
      4854 MEMB     36       POPC     H16S     HAL2     0.900000E-01   1.00800           0
      4855 MEMB     36       POPC     C217     CTL2    -0.180000       12.0110           0
      4856 MEMB     36       POPC     H17R     HAL2     0.900000E-01   1.00800           0
      4857 MEMB     36       POPC     H17S     HAL2     0.900000E-01   1.00800           0
      4858 MEMB     36       POPC     C218     CTL3    -0.270000       12.0110           0
      4859 MEMB     36       POPC     H18R     HAL3     0.900000E-01   1.00800           0
      4860 MEMB     36       POPC     H18S     HAL3     0.900000E-01   1.00800           0
      4861 MEMB     36       POPC     H18T     HAL3     0.900000E-01   1.00800           0
      4862 MEMB     36       POPC     C33      CTL2    -0.180000       12.0110           0
      4863 MEMB     36       POPC     H3X      HAL2     0.900000E-01   1.00800           0
      4864 MEMB     36       POPC     H3Y      HAL2     0.900000E-01   1.00800           0
      4865 MEMB     36       POPC     C34      CTL2    -0.180000       12.0110           0
      4866 MEMB     36       POPC     H4X      HAL2     0.900000E-01   1.00800           0
      4867 MEMB     36       POPC     H4Y      HAL2     0.900000E-01   1.00800           0
      4868 MEMB     36       POPC     C35      CTL2    -0.180000       12.0110           0
      4869 MEMB     36       POPC     H5X      HAL2     0.900000E-01   1.00800           0
      4870 MEMB     36       POPC     H5Y      HAL2     0.900000E-01   1.00800           0
      4871 MEMB     36       POPC     C36      CTL2    -0.180000       12.0110           0
      4872 MEMB     36       POPC     H6X      HAL2     0.900000E-01   1.00800           0
      4873 MEMB     36       POPC     H6Y      HAL2     0.900000E-01   1.00800           0
      4874 MEMB     36       POPC     C37      CTL2    -0.180000       12.0110           0
      4875 MEMB     36       POPC     H7X      HAL2     0.900000E-01   1.00800           0
      4876 MEMB     36       POPC     H7Y      HAL2     0.900000E-01   1.00800           0
      4877 MEMB     36       POPC     C38      CTL2    -0.180000       12.0110           0
      4878 MEMB     36       POPC     H8X      HAL2     0.900000E-01   1.00800           0
      4879 MEMB     36       POPC     H8Y      HAL2     0.900000E-01   1.00800           0
      4880 MEMB     36       POPC     C39      CTL2    -0.180000       12.0110           0
      4881 MEMB     36       POPC     H9X      HAL2     0.900000E-01   1.00800           0
      4882 MEMB     36       POPC     H9Y      HAL2     0.900000E-01   1.00800           0
      4883 MEMB     36       POPC     C310     CTL2    -0.180000       12.0110           0
      4884 MEMB     36       POPC     H10X     HAL2     0.900000E-01   1.00800           0
      4885 MEMB     36       POPC     H10Y     HAL2     0.900000E-01   1.00800           0
      4886 MEMB     36       POPC     C311     CTL2    -0.180000       12.0110           0
      4887 MEMB     36       POPC     H11X     HAL2     0.900000E-01   1.00800           0
      4888 MEMB     36       POPC     H11Y     HAL2     0.900000E-01   1.00800           0
      4889 MEMB     36       POPC     C312     CTL2    -0.180000       12.0110           0
      4890 MEMB     36       POPC     H12X     HAL2     0.900000E-01   1.00800           0
      4891 MEMB     36       POPC     H12Y     HAL2     0.900000E-01   1.00800           0
      4892 MEMB     36       POPC     C313     CTL2    -0.180000       12.0110           0
      4893 MEMB     36       POPC     H13X     HAL2     0.900000E-01   1.00800           0
      4894 MEMB     36       POPC     H13Y     HAL2     0.900000E-01   1.00800           0
      4895 MEMB     36       POPC     C314     CTL2    -0.180000       12.0110           0
      4896 MEMB     36       POPC     H14X     HAL2     0.900000E-01   1.00800           0
      4897 MEMB     36       POPC     H14Y     HAL2     0.900000E-01   1.00800           0
      4898 MEMB     36       POPC     C315     CTL2    -0.180000       12.0110           0
      4899 MEMB     36       POPC     H15X     HAL2     0.900000E-01   1.00800           0
      4900 MEMB     36       POPC     H15Y     HAL2     0.900000E-01   1.00800           0
      4901 MEMB     36       POPC     C316     CTL3    -0.270000       12.0110           0
      4902 MEMB     36       POPC     H16X     HAL3     0.900000E-01   1.00800           0
      4903 MEMB     36       POPC     H16Y     HAL3     0.900000E-01   1.00800           0
      4904 MEMB     36       POPC     H16Z     HAL3     0.900000E-01   1.00800           0
      4905 MEMB     37       POPC     N        NTL     -0.600000       14.0070           0
      4906 MEMB     37       POPC     C12      CTL2    -0.100000       12.0110           0
      4907 MEMB     37       POPC     H12A     HL       0.250000       1.00800           0
      4908 MEMB     37       POPC     H12B     HL       0.250000       1.00800           0
      4909 MEMB     37       POPC     C13      CTL5    -0.350000       12.0110           0
      4910 MEMB     37       POPC     H13A     HL       0.250000       1.00800           0
      4911 MEMB     37       POPC     H13B     HL       0.250000       1.00800           0
      4912 MEMB     37       POPC     H13C     HL       0.250000       1.00800           0
      4913 MEMB     37       POPC     C14      CTL5    -0.350000       12.0110           0
      4914 MEMB     37       POPC     H14A     HL       0.250000       1.00800           0
      4915 MEMB     37       POPC     H14B     HL       0.250000       1.00800           0
      4916 MEMB     37       POPC     H14C     HL       0.250000       1.00800           0
      4917 MEMB     37       POPC     C15      CTL5    -0.350000       12.0110           0
      4918 MEMB     37       POPC     H15A     HL       0.250000       1.00800           0
      4919 MEMB     37       POPC     H15B     HL       0.250000       1.00800           0
      4920 MEMB     37       POPC     H15C     HL       0.250000       1.00800           0
      4921 MEMB     37       POPC     C11      CTL2    -0.800000E-01   12.0110           0
      4922 MEMB     37       POPC     H11A     HAL2     0.900000E-01   1.00800           0
      4923 MEMB     37       POPC     H11B     HAL2     0.900000E-01   1.00800           0
      4924 MEMB     37       POPC     P        PL       1.500000       30.9740           0
      4925 MEMB     37       POPC     O13      O2L     -0.780000       15.9994           0
      4926 MEMB     37       POPC     O14      O2L     -0.780000       15.9994           0
      4927 MEMB     37       POPC     O12      OSLP    -0.570000       15.9994           0
      4928 MEMB     37       POPC     O11      OSLP    -0.570000       15.9994           0
      4929 MEMB     37       POPC     C1       CTL2    -0.800000E-01   12.0110           0
      4930 MEMB     37       POPC     HA       HAL2     0.900000E-01   1.00800           0
      4931 MEMB     37       POPC     HB       HAL2     0.900000E-01   1.00800           0
      4932 MEMB     37       POPC     C2       CTL1     0.170000       12.0110           0
      4933 MEMB     37       POPC     HS       HAL1     0.900000E-01   1.00800           0
      4934 MEMB     37       POPC     O21      OSL     -0.490000       15.9994           0
      4935 MEMB     37       POPC     C21      CL       0.900000       12.0110           0
      4936 MEMB     37       POPC     O22      OBL     -0.630000       15.9994           0
      4937 MEMB     37       POPC     C22      CTL2    -0.220000       12.0110           0
      4938 MEMB     37       POPC     H2R      HAL2     0.900000E-01   1.00800           0
      4939 MEMB     37       POPC     H2S      HAL2     0.900000E-01   1.00800           0
      4940 MEMB     37       POPC     C3       CTL2     0.800000E-01   12.0110           0
      4941 MEMB     37       POPC     HX       HAL2     0.900000E-01   1.00800           0
      4942 MEMB     37       POPC     HY       HAL2     0.900000E-01   1.00800           0
      4943 MEMB     37       POPC     O31      OSL     -0.490000       15.9994           0
      4944 MEMB     37       POPC     C31      CL       0.900000       12.0110           0
      4945 MEMB     37       POPC     O32      OBL     -0.630000       15.9994           0
      4946 MEMB     37       POPC     C32      CTL2    -0.220000       12.0110           0
      4947 MEMB     37       POPC     H2X      HAL2     0.900000E-01   1.00800           0
      4948 MEMB     37       POPC     H2Y      HAL2     0.900000E-01   1.00800           0
      4949 MEMB     37       POPC     C23      CTL2    -0.180000       12.0110           0
      4950 MEMB     37       POPC     H3R      HAL2     0.900000E-01   1.00800           0
      4951 MEMB     37       POPC     H3S      HAL2     0.900000E-01   1.00800           0
      4952 MEMB     37       POPC     C24      CTL2    -0.180000       12.0110           0
      4953 MEMB     37       POPC     H4R      HAL2     0.900000E-01   1.00800           0
      4954 MEMB     37       POPC     H4S      HAL2     0.900000E-01   1.00800           0
      4955 MEMB     37       POPC     C25      CTL2    -0.180000       12.0110           0
      4956 MEMB     37       POPC     H5R      HAL2     0.900000E-01   1.00800           0
      4957 MEMB     37       POPC     H5S      HAL2     0.900000E-01   1.00800           0
      4958 MEMB     37       POPC     C26      CTL2    -0.180000       12.0110           0
      4959 MEMB     37       POPC     H6R      HAL2     0.900000E-01   1.00800           0
      4960 MEMB     37       POPC     H6S      HAL2     0.900000E-01   1.00800           0
      4961 MEMB     37       POPC     C27      CTL2    -0.180000       12.0110           0
      4962 MEMB     37       POPC     H7R      HAL2     0.900000E-01   1.00800           0
      4963 MEMB     37       POPC     H7S      HAL2     0.900000E-01   1.00800           0
      4964 MEMB     37       POPC     C28      CTL2    -0.180000       12.0110           0
      4965 MEMB     37       POPC     H8R      HAL2     0.900000E-01   1.00800           0
      4966 MEMB     37       POPC     H8S      HAL2     0.900000E-01   1.00800           0
      4967 MEMB     37       POPC     C29      CEL1    -0.150000       12.0110           0
      4968 MEMB     37       POPC     H91      HEL1     0.150000       1.00800           0
      4969 MEMB     37       POPC     C210     CEL1    -0.150000       12.0110           0
      4970 MEMB     37       POPC     H101     HEL1     0.150000       1.00800           0
      4971 MEMB     37       POPC     C211     CTL2    -0.180000       12.0110           0
      4972 MEMB     37       POPC     H11R     HAL2     0.900000E-01   1.00800           0
      4973 MEMB     37       POPC     H11S     HAL2     0.900000E-01   1.00800           0
      4974 MEMB     37       POPC     C212     CTL2    -0.180000       12.0110           0
      4975 MEMB     37       POPC     H12R     HAL2     0.900000E-01   1.00800           0
      4976 MEMB     37       POPC     H12S     HAL2     0.900000E-01   1.00800           0
      4977 MEMB     37       POPC     C213     CTL2    -0.180000       12.0110           0
      4978 MEMB     37       POPC     H13R     HAL2     0.900000E-01   1.00800           0
      4979 MEMB     37       POPC     H13S     HAL2     0.900000E-01   1.00800           0
      4980 MEMB     37       POPC     C214     CTL2    -0.180000       12.0110           0
      4981 MEMB     37       POPC     H14R     HAL2     0.900000E-01   1.00800           0
      4982 MEMB     37       POPC     H14S     HAL2     0.900000E-01   1.00800           0
      4983 MEMB     37       POPC     C215     CTL2    -0.180000       12.0110           0
      4984 MEMB     37       POPC     H15R     HAL2     0.900000E-01   1.00800           0
      4985 MEMB     37       POPC     H15S     HAL2     0.900000E-01   1.00800           0
      4986 MEMB     37       POPC     C216     CTL2    -0.180000       12.0110           0
      4987 MEMB     37       POPC     H16R     HAL2     0.900000E-01   1.00800           0
      4988 MEMB     37       POPC     H16S     HAL2     0.900000E-01   1.00800           0
      4989 MEMB     37       POPC     C217     CTL2    -0.180000       12.0110           0
      4990 MEMB     37       POPC     H17R     HAL2     0.900000E-01   1.00800           0
      4991 MEMB     37       POPC     H17S     HAL2     0.900000E-01   1.00800           0
      4992 MEMB     37       POPC     C218     CTL3    -0.270000       12.0110           0
      4993 MEMB     37       POPC     H18R     HAL3     0.900000E-01   1.00800           0
      4994 MEMB     37       POPC     H18S     HAL3     0.900000E-01   1.00800           0
      4995 MEMB     37       POPC     H18T     HAL3     0.900000E-01   1.00800           0
      4996 MEMB     37       POPC     C33      CTL2    -0.180000       12.0110           0
      4997 MEMB     37       POPC     H3X      HAL2     0.900000E-01   1.00800           0
      4998 MEMB     37       POPC     H3Y      HAL2     0.900000E-01   1.00800           0
      4999 MEMB     37       POPC     C34      CTL2    -0.180000       12.0110           0
      5000 MEMB     37       POPC     H4X      HAL2     0.900000E-01   1.00800           0
      5001 MEMB     37       POPC     H4Y      HAL2     0.900000E-01   1.00800           0
      5002 MEMB     37       POPC     C35      CTL2    -0.180000       12.0110           0
      5003 MEMB     37       POPC     H5X      HAL2     0.900000E-01   1.00800           0
      5004 MEMB     37       POPC     H5Y      HAL2     0.900000E-01   1.00800           0
      5005 MEMB     37       POPC     C36      CTL2    -0.180000       12.0110           0
      5006 MEMB     37       POPC     H6X      HAL2     0.900000E-01   1.00800           0
      5007 MEMB     37       POPC     H6Y      HAL2     0.900000E-01   1.00800           0
      5008 MEMB     37       POPC     C37      CTL2    -0.180000       12.0110           0
      5009 MEMB     37       POPC     H7X      HAL2     0.900000E-01   1.00800           0
      5010 MEMB     37       POPC     H7Y      HAL2     0.900000E-01   1.00800           0
      5011 MEMB     37       POPC     C38      CTL2    -0.180000       12.0110           0
      5012 MEMB     37       POPC     H8X      HAL2     0.900000E-01   1.00800           0
      5013 MEMB     37       POPC     H8Y      HAL2     0.900000E-01   1.00800           0
      5014 MEMB     37       POPC     C39      CTL2    -0.180000       12.0110           0
      5015 MEMB     37       POPC     H9X      HAL2     0.900000E-01   1.00800           0
      5016 MEMB     37       POPC     H9Y      HAL2     0.900000E-01   1.00800           0
      5017 MEMB     37       POPC     C310     CTL2    -0.180000       12.0110           0
      5018 MEMB     37       POPC     H10X     HAL2     0.900000E-01   1.00800           0
      5019 MEMB     37       POPC     H10Y     HAL2     0.900000E-01   1.00800           0
      5020 MEMB     37       POPC     C311     CTL2    -0.180000       12.0110           0
      5021 MEMB     37       POPC     H11X     HAL2     0.900000E-01   1.00800           0
      5022 MEMB     37       POPC     H11Y     HAL2     0.900000E-01   1.00800           0
      5023 MEMB     37       POPC     C312     CTL2    -0.180000       12.0110           0
      5024 MEMB     37       POPC     H12X     HAL2     0.900000E-01   1.00800           0
      5025 MEMB     37       POPC     H12Y     HAL2     0.900000E-01   1.00800           0
      5026 MEMB     37       POPC     C313     CTL2    -0.180000       12.0110           0
      5027 MEMB     37       POPC     H13X     HAL2     0.900000E-01   1.00800           0
      5028 MEMB     37       POPC     H13Y     HAL2     0.900000E-01   1.00800           0
      5029 MEMB     37       POPC     C314     CTL2    -0.180000       12.0110           0
      5030 MEMB     37       POPC     H14X     HAL2     0.900000E-01   1.00800           0
      5031 MEMB     37       POPC     H14Y     HAL2     0.900000E-01   1.00800           0
      5032 MEMB     37       POPC     C315     CTL2    -0.180000       12.0110           0
      5033 MEMB     37       POPC     H15X     HAL2     0.900000E-01   1.00800           0
      5034 MEMB     37       POPC     H15Y     HAL2     0.900000E-01   1.00800           0
      5035 MEMB     37       POPC     C316     CTL3    -0.270000       12.0110           0
      5036 MEMB     37       POPC     H16X     HAL3     0.900000E-01   1.00800           0
      5037 MEMB     37       POPC     H16Y     HAL3     0.900000E-01   1.00800           0
      5038 MEMB     37       POPC     H16Z     HAL3     0.900000E-01   1.00800           0
      5039 MEMB     38       POPC     N        NTL     -0.600000       14.0070           0
      5040 MEMB     38       POPC     C12      CTL2    -0.100000       12.0110           0
      5041 MEMB     38       POPC     H12A     HL       0.250000       1.00800           0
      5042 MEMB     38       POPC     H12B     HL       0.250000       1.00800           0
      5043 MEMB     38       POPC     C13      CTL5    -0.350000       12.0110           0
      5044 MEMB     38       POPC     H13A     HL       0.250000       1.00800           0
      5045 MEMB     38       POPC     H13B     HL       0.250000       1.00800           0
      5046 MEMB     38       POPC     H13C     HL       0.250000       1.00800           0
      5047 MEMB     38       POPC     C14      CTL5    -0.350000       12.0110           0
      5048 MEMB     38       POPC     H14A     HL       0.250000       1.00800           0
      5049 MEMB     38       POPC     H14B     HL       0.250000       1.00800           0
      5050 MEMB     38       POPC     H14C     HL       0.250000       1.00800           0
      5051 MEMB     38       POPC     C15      CTL5    -0.350000       12.0110           0
      5052 MEMB     38       POPC     H15A     HL       0.250000       1.00800           0
      5053 MEMB     38       POPC     H15B     HL       0.250000       1.00800           0
      5054 MEMB     38       POPC     H15C     HL       0.250000       1.00800           0
      5055 MEMB     38       POPC     C11      CTL2    -0.800000E-01   12.0110           0
      5056 MEMB     38       POPC     H11A     HAL2     0.900000E-01   1.00800           0
      5057 MEMB     38       POPC     H11B     HAL2     0.900000E-01   1.00800           0
      5058 MEMB     38       POPC     P        PL       1.500000       30.9740           0
      5059 MEMB     38       POPC     O13      O2L     -0.780000       15.9994           0
      5060 MEMB     38       POPC     O14      O2L     -0.780000       15.9994           0
      5061 MEMB     38       POPC     O12      OSLP    -0.570000       15.9994           0
      5062 MEMB     38       POPC     O11      OSLP    -0.570000       15.9994           0
      5063 MEMB     38       POPC     C1       CTL2    -0.800000E-01   12.0110           0
      5064 MEMB     38       POPC     HA       HAL2     0.900000E-01   1.00800           0
      5065 MEMB     38       POPC     HB       HAL2     0.900000E-01   1.00800           0
      5066 MEMB     38       POPC     C2       CTL1     0.170000       12.0110           0
      5067 MEMB     38       POPC     HS       HAL1     0.900000E-01   1.00800           0
      5068 MEMB     38       POPC     O21      OSL     -0.490000       15.9994           0
      5069 MEMB     38       POPC     C21      CL       0.900000       12.0110           0
      5070 MEMB     38       POPC     O22      OBL     -0.630000       15.9994           0
      5071 MEMB     38       POPC     C22      CTL2    -0.220000       12.0110           0
      5072 MEMB     38       POPC     H2R      HAL2     0.900000E-01   1.00800           0
      5073 MEMB     38       POPC     H2S      HAL2     0.900000E-01   1.00800           0
      5074 MEMB     38       POPC     C3       CTL2     0.800000E-01   12.0110           0
      5075 MEMB     38       POPC     HX       HAL2     0.900000E-01   1.00800           0
      5076 MEMB     38       POPC     HY       HAL2     0.900000E-01   1.00800           0
      5077 MEMB     38       POPC     O31      OSL     -0.490000       15.9994           0
      5078 MEMB     38       POPC     C31      CL       0.900000       12.0110           0
      5079 MEMB     38       POPC     O32      OBL     -0.630000       15.9994           0
      5080 MEMB     38       POPC     C32      CTL2    -0.220000       12.0110           0
      5081 MEMB     38       POPC     H2X      HAL2     0.900000E-01   1.00800           0
      5082 MEMB     38       POPC     H2Y      HAL2     0.900000E-01   1.00800           0
      5083 MEMB     38       POPC     C23      CTL2    -0.180000       12.0110           0
      5084 MEMB     38       POPC     H3R      HAL2     0.900000E-01   1.00800           0
      5085 MEMB     38       POPC     H3S      HAL2     0.900000E-01   1.00800           0
      5086 MEMB     38       POPC     C24      CTL2    -0.180000       12.0110           0
      5087 MEMB     38       POPC     H4R      HAL2     0.900000E-01   1.00800           0
      5088 MEMB     38       POPC     H4S      HAL2     0.900000E-01   1.00800           0
      5089 MEMB     38       POPC     C25      CTL2    -0.180000       12.0110           0
      5090 MEMB     38       POPC     H5R      HAL2     0.900000E-01   1.00800           0
      5091 MEMB     38       POPC     H5S      HAL2     0.900000E-01   1.00800           0
      5092 MEMB     38       POPC     C26      CTL2    -0.180000       12.0110           0
      5093 MEMB     38       POPC     H6R      HAL2     0.900000E-01   1.00800           0
      5094 MEMB     38       POPC     H6S      HAL2     0.900000E-01   1.00800           0
      5095 MEMB     38       POPC     C27      CTL2    -0.180000       12.0110           0
      5096 MEMB     38       POPC     H7R      HAL2     0.900000E-01   1.00800           0
      5097 MEMB     38       POPC     H7S      HAL2     0.900000E-01   1.00800           0
      5098 MEMB     38       POPC     C28      CTL2    -0.180000       12.0110           0
      5099 MEMB     38       POPC     H8R      HAL2     0.900000E-01   1.00800           0
      5100 MEMB     38       POPC     H8S      HAL2     0.900000E-01   1.00800           0
      5101 MEMB     38       POPC     C29      CEL1    -0.150000       12.0110           0
      5102 MEMB     38       POPC     H91      HEL1     0.150000       1.00800           0
      5103 MEMB     38       POPC     C210     CEL1    -0.150000       12.0110           0
      5104 MEMB     38       POPC     H101     HEL1     0.150000       1.00800           0
      5105 MEMB     38       POPC     C211     CTL2    -0.180000       12.0110           0
      5106 MEMB     38       POPC     H11R     HAL2     0.900000E-01   1.00800           0
      5107 MEMB     38       POPC     H11S     HAL2     0.900000E-01   1.00800           0
      5108 MEMB     38       POPC     C212     CTL2    -0.180000       12.0110           0
      5109 MEMB     38       POPC     H12R     HAL2     0.900000E-01   1.00800           0
      5110 MEMB     38       POPC     H12S     HAL2     0.900000E-01   1.00800           0
      5111 MEMB     38       POPC     C213     CTL2    -0.180000       12.0110           0
      5112 MEMB     38       POPC     H13R     HAL2     0.900000E-01   1.00800           0
      5113 MEMB     38       POPC     H13S     HAL2     0.900000E-01   1.00800           0
      5114 MEMB     38       POPC     C214     CTL2    -0.180000       12.0110           0
      5115 MEMB     38       POPC     H14R     HAL2     0.900000E-01   1.00800           0
      5116 MEMB     38       POPC     H14S     HAL2     0.900000E-01   1.00800           0
      5117 MEMB     38       POPC     C215     CTL2    -0.180000       12.0110           0
      5118 MEMB     38       POPC     H15R     HAL2     0.900000E-01   1.00800           0
      5119 MEMB     38       POPC     H15S     HAL2     0.900000E-01   1.00800           0
      5120 MEMB     38       POPC     C216     CTL2    -0.180000       12.0110           0
      5121 MEMB     38       POPC     H16R     HAL2     0.900000E-01   1.00800           0
      5122 MEMB     38       POPC     H16S     HAL2     0.900000E-01   1.00800           0
      5123 MEMB     38       POPC     C217     CTL2    -0.180000       12.0110           0
      5124 MEMB     38       POPC     H17R     HAL2     0.900000E-01   1.00800           0
      5125 MEMB     38       POPC     H17S     HAL2     0.900000E-01   1.00800           0
      5126 MEMB     38       POPC     C218     CTL3    -0.270000       12.0110           0
      5127 MEMB     38       POPC     H18R     HAL3     0.900000E-01   1.00800           0
      5128 MEMB     38       POPC     H18S     HAL3     0.900000E-01   1.00800           0
      5129 MEMB     38       POPC     H18T     HAL3     0.900000E-01   1.00800           0
      5130 MEMB     38       POPC     C33      CTL2    -0.180000       12.0110           0
      5131 MEMB     38       POPC     H3X      HAL2     0.900000E-01   1.00800           0
      5132 MEMB     38       POPC     H3Y      HAL2     0.900000E-01   1.00800           0
      5133 MEMB     38       POPC     C34      CTL2    -0.180000       12.0110           0
      5134 MEMB     38       POPC     H4X      HAL2     0.900000E-01   1.00800           0
      5135 MEMB     38       POPC     H4Y      HAL2     0.900000E-01   1.00800           0
      5136 MEMB     38       POPC     C35      CTL2    -0.180000       12.0110           0
      5137 MEMB     38       POPC     H5X      HAL2     0.900000E-01   1.00800           0
      5138 MEMB     38       POPC     H5Y      HAL2     0.900000E-01   1.00800           0
      5139 MEMB     38       POPC     C36      CTL2    -0.180000       12.0110           0
      5140 MEMB     38       POPC     H6X      HAL2     0.900000E-01   1.00800           0
      5141 MEMB     38       POPC     H6Y      HAL2     0.900000E-01   1.00800           0
      5142 MEMB     38       POPC     C37      CTL2    -0.180000       12.0110           0
      5143 MEMB     38       POPC     H7X      HAL2     0.900000E-01   1.00800           0
      5144 MEMB     38       POPC     H7Y      HAL2     0.900000E-01   1.00800           0
      5145 MEMB     38       POPC     C38      CTL2    -0.180000       12.0110           0
      5146 MEMB     38       POPC     H8X      HAL2     0.900000E-01   1.00800           0
      5147 MEMB     38       POPC     H8Y      HAL2     0.900000E-01   1.00800           0
      5148 MEMB     38       POPC     C39      CTL2    -0.180000       12.0110           0
      5149 MEMB     38       POPC     H9X      HAL2     0.900000E-01   1.00800           0
      5150 MEMB     38       POPC     H9Y      HAL2     0.900000E-01   1.00800           0
      5151 MEMB     38       POPC     C310     CTL2    -0.180000       12.0110           0
      5152 MEMB     38       POPC     H10X     HAL2     0.900000E-01   1.00800           0
      5153 MEMB     38       POPC     H10Y     HAL2     0.900000E-01   1.00800           0
      5154 MEMB     38       POPC     C311     CTL2    -0.180000       12.0110           0
      5155 MEMB     38       POPC     H11X     HAL2     0.900000E-01   1.00800           0
      5156 MEMB     38       POPC     H11Y     HAL2     0.900000E-01   1.00800           0
      5157 MEMB     38       POPC     C312     CTL2    -0.180000       12.0110           0
      5158 MEMB     38       POPC     H12X     HAL2     0.900000E-01   1.00800           0
      5159 MEMB     38       POPC     H12Y     HAL2     0.900000E-01   1.00800           0
      5160 MEMB     38       POPC     C313     CTL2    -0.180000       12.0110           0
      5161 MEMB     38       POPC     H13X     HAL2     0.900000E-01   1.00800           0
      5162 MEMB     38       POPC     H13Y     HAL2     0.900000E-01   1.00800           0
      5163 MEMB     38       POPC     C314     CTL2    -0.180000       12.0110           0
      5164 MEMB     38       POPC     H14X     HAL2     0.900000E-01   1.00800           0
      5165 MEMB     38       POPC     H14Y     HAL2     0.900000E-01   1.00800           0
      5166 MEMB     38       POPC     C315     CTL2    -0.180000       12.0110           0
      5167 MEMB     38       POPC     H15X     HAL2     0.900000E-01   1.00800           0
      5168 MEMB     38       POPC     H15Y     HAL2     0.900000E-01   1.00800           0
      5169 MEMB     38       POPC     C316     CTL3    -0.270000       12.0110           0
      5170 MEMB     38       POPC     H16X     HAL3     0.900000E-01   1.00800           0
      5171 MEMB     38       POPC     H16Y     HAL3     0.900000E-01   1.00800           0
      5172 MEMB     38       POPC     H16Z     HAL3     0.900000E-01   1.00800           0
      5173 MEMB     39       POPC     N        NTL     -0.600000       14.0070           0
      5174 MEMB     39       POPC     C12      CTL2    -0.100000       12.0110           0
      5175 MEMB     39       POPC     H12A     HL       0.250000       1.00800           0
      5176 MEMB     39       POPC     H12B     HL       0.250000       1.00800           0
      5177 MEMB     39       POPC     C13      CTL5    -0.350000       12.0110           0
      5178 MEMB     39       POPC     H13A     HL       0.250000       1.00800           0
      5179 MEMB     39       POPC     H13B     HL       0.250000       1.00800           0
      5180 MEMB     39       POPC     H13C     HL       0.250000       1.00800           0
      5181 MEMB     39       POPC     C14      CTL5    -0.350000       12.0110           0
      5182 MEMB     39       POPC     H14A     HL       0.250000       1.00800           0
      5183 MEMB     39       POPC     H14B     HL       0.250000       1.00800           0
      5184 MEMB     39       POPC     H14C     HL       0.250000       1.00800           0
      5185 MEMB     39       POPC     C15      CTL5    -0.350000       12.0110           0
      5186 MEMB     39       POPC     H15A     HL       0.250000       1.00800           0
      5187 MEMB     39       POPC     H15B     HL       0.250000       1.00800           0
      5188 MEMB     39       POPC     H15C     HL       0.250000       1.00800           0
      5189 MEMB     39       POPC     C11      CTL2    -0.800000E-01   12.0110           0
      5190 MEMB     39       POPC     H11A     HAL2     0.900000E-01   1.00800           0
      5191 MEMB     39       POPC     H11B     HAL2     0.900000E-01   1.00800           0
      5192 MEMB     39       POPC     P        PL       1.500000       30.9740           0
      5193 MEMB     39       POPC     O13      O2L     -0.780000       15.9994           0
      5194 MEMB     39       POPC     O14      O2L     -0.780000       15.9994           0
      5195 MEMB     39       POPC     O12      OSLP    -0.570000       15.9994           0
      5196 MEMB     39       POPC     O11      OSLP    -0.570000       15.9994           0
      5197 MEMB     39       POPC     C1       CTL2    -0.800000E-01   12.0110           0
      5198 MEMB     39       POPC     HA       HAL2     0.900000E-01   1.00800           0
      5199 MEMB     39       POPC     HB       HAL2     0.900000E-01   1.00800           0
      5200 MEMB     39       POPC     C2       CTL1     0.170000       12.0110           0
      5201 MEMB     39       POPC     HS       HAL1     0.900000E-01   1.00800           0
      5202 MEMB     39       POPC     O21      OSL     -0.490000       15.9994           0
      5203 MEMB     39       POPC     C21      CL       0.900000       12.0110           0
      5204 MEMB     39       POPC     O22      OBL     -0.630000       15.9994           0
      5205 MEMB     39       POPC     C22      CTL2    -0.220000       12.0110           0
      5206 MEMB     39       POPC     H2R      HAL2     0.900000E-01   1.00800           0
      5207 MEMB     39       POPC     H2S      HAL2     0.900000E-01   1.00800           0
      5208 MEMB     39       POPC     C3       CTL2     0.800000E-01   12.0110           0
      5209 MEMB     39       POPC     HX       HAL2     0.900000E-01   1.00800           0
      5210 MEMB     39       POPC     HY       HAL2     0.900000E-01   1.00800           0
      5211 MEMB     39       POPC     O31      OSL     -0.490000       15.9994           0
      5212 MEMB     39       POPC     C31      CL       0.900000       12.0110           0
      5213 MEMB     39       POPC     O32      OBL     -0.630000       15.9994           0
      5214 MEMB     39       POPC     C32      CTL2    -0.220000       12.0110           0
      5215 MEMB     39       POPC     H2X      HAL2     0.900000E-01   1.00800           0
      5216 MEMB     39       POPC     H2Y      HAL2     0.900000E-01   1.00800           0
      5217 MEMB     39       POPC     C23      CTL2    -0.180000       12.0110           0
      5218 MEMB     39       POPC     H3R      HAL2     0.900000E-01   1.00800           0
      5219 MEMB     39       POPC     H3S      HAL2     0.900000E-01   1.00800           0
      5220 MEMB     39       POPC     C24      CTL2    -0.180000       12.0110           0
      5221 MEMB     39       POPC     H4R      HAL2     0.900000E-01   1.00800           0
      5222 MEMB     39       POPC     H4S      HAL2     0.900000E-01   1.00800           0
      5223 MEMB     39       POPC     C25      CTL2    -0.180000       12.0110           0
      5224 MEMB     39       POPC     H5R      HAL2     0.900000E-01   1.00800           0
      5225 MEMB     39       POPC     H5S      HAL2     0.900000E-01   1.00800           0
      5226 MEMB     39       POPC     C26      CTL2    -0.180000       12.0110           0
      5227 MEMB     39       POPC     H6R      HAL2     0.900000E-01   1.00800           0
      5228 MEMB     39       POPC     H6S      HAL2     0.900000E-01   1.00800           0
      5229 MEMB     39       POPC     C27      CTL2    -0.180000       12.0110           0
      5230 MEMB     39       POPC     H7R      HAL2     0.900000E-01   1.00800           0
      5231 MEMB     39       POPC     H7S      HAL2     0.900000E-01   1.00800           0
      5232 MEMB     39       POPC     C28      CTL2    -0.180000       12.0110           0
      5233 MEMB     39       POPC     H8R      HAL2     0.900000E-01   1.00800           0
      5234 MEMB     39       POPC     H8S      HAL2     0.900000E-01   1.00800           0
      5235 MEMB     39       POPC     C29      CEL1    -0.150000       12.0110           0
      5236 MEMB     39       POPC     H91      HEL1     0.150000       1.00800           0
      5237 MEMB     39       POPC     C210     CEL1    -0.150000       12.0110           0
      5238 MEMB     39       POPC     H101     HEL1     0.150000       1.00800           0
      5239 MEMB     39       POPC     C211     CTL2    -0.180000       12.0110           0
      5240 MEMB     39       POPC     H11R     HAL2     0.900000E-01   1.00800           0
      5241 MEMB     39       POPC     H11S     HAL2     0.900000E-01   1.00800           0
      5242 MEMB     39       POPC     C212     CTL2    -0.180000       12.0110           0
      5243 MEMB     39       POPC     H12R     HAL2     0.900000E-01   1.00800           0
      5244 MEMB     39       POPC     H12S     HAL2     0.900000E-01   1.00800           0
      5245 MEMB     39       POPC     C213     CTL2    -0.180000       12.0110           0
      5246 MEMB     39       POPC     H13R     HAL2     0.900000E-01   1.00800           0
      5247 MEMB     39       POPC     H13S     HAL2     0.900000E-01   1.00800           0
      5248 MEMB     39       POPC     C214     CTL2    -0.180000       12.0110           0
      5249 MEMB     39       POPC     H14R     HAL2     0.900000E-01   1.00800           0
      5250 MEMB     39       POPC     H14S     HAL2     0.900000E-01   1.00800           0
      5251 MEMB     39       POPC     C215     CTL2    -0.180000       12.0110           0
      5252 MEMB     39       POPC     H15R     HAL2     0.900000E-01   1.00800           0
      5253 MEMB     39       POPC     H15S     HAL2     0.900000E-01   1.00800           0
      5254 MEMB     39       POPC     C216     CTL2    -0.180000       12.0110           0
      5255 MEMB     39       POPC     H16R     HAL2     0.900000E-01   1.00800           0
      5256 MEMB     39       POPC     H16S     HAL2     0.900000E-01   1.00800           0
      5257 MEMB     39       POPC     C217     CTL2    -0.180000       12.0110           0
      5258 MEMB     39       POPC     H17R     HAL2     0.900000E-01   1.00800           0
      5259 MEMB     39       POPC     H17S     HAL2     0.900000E-01   1.00800           0
      5260 MEMB     39       POPC     C218     CTL3    -0.270000       12.0110           0
      5261 MEMB     39       POPC     H18R     HAL3     0.900000E-01   1.00800           0
      5262 MEMB     39       POPC     H18S     HAL3     0.900000E-01   1.00800           0
      5263 MEMB     39       POPC     H18T     HAL3     0.900000E-01   1.00800           0
      5264 MEMB     39       POPC     C33      CTL2    -0.180000       12.0110           0
      5265 MEMB     39       POPC     H3X      HAL2     0.900000E-01   1.00800           0
      5266 MEMB     39       POPC     H3Y      HAL2     0.900000E-01   1.00800           0
      5267 MEMB     39       POPC     C34      CTL2    -0.180000       12.0110           0
      5268 MEMB     39       POPC     H4X      HAL2     0.900000E-01   1.00800           0
      5269 MEMB     39       POPC     H4Y      HAL2     0.900000E-01   1.00800           0
      5270 MEMB     39       POPC     C35      CTL2    -0.180000       12.0110           0
      5271 MEMB     39       POPC     H5X      HAL2     0.900000E-01   1.00800           0
      5272 MEMB     39       POPC     H5Y      HAL2     0.900000E-01   1.00800           0
      5273 MEMB     39       POPC     C36      CTL2    -0.180000       12.0110           0
      5274 MEMB     39       POPC     H6X      HAL2     0.900000E-01   1.00800           0
      5275 MEMB     39       POPC     H6Y      HAL2     0.900000E-01   1.00800           0
      5276 MEMB     39       POPC     C37      CTL2    -0.180000       12.0110           0
      5277 MEMB     39       POPC     H7X      HAL2     0.900000E-01   1.00800           0
      5278 MEMB     39       POPC     H7Y      HAL2     0.900000E-01   1.00800           0
      5279 MEMB     39       POPC     C38      CTL2    -0.180000       12.0110           0
      5280 MEMB     39       POPC     H8X      HAL2     0.900000E-01   1.00800           0
      5281 MEMB     39       POPC     H8Y      HAL2     0.900000E-01   1.00800           0
      5282 MEMB     39       POPC     C39      CTL2    -0.180000       12.0110           0
      5283 MEMB     39       POPC     H9X      HAL2     0.900000E-01   1.00800           0
      5284 MEMB     39       POPC     H9Y      HAL2     0.900000E-01   1.00800           0
      5285 MEMB     39       POPC     C310     CTL2    -0.180000       12.0110           0
      5286 MEMB     39       POPC     H10X     HAL2     0.900000E-01   1.00800           0
      5287 MEMB     39       POPC     H10Y     HAL2     0.900000E-01   1.00800           0
      5288 MEMB     39       POPC     C311     CTL2    -0.180000       12.0110           0
      5289 MEMB     39       POPC     H11X     HAL2     0.900000E-01   1.00800           0
      5290 MEMB     39       POPC     H11Y     HAL2     0.900000E-01   1.00800           0
      5291 MEMB     39       POPC     C312     CTL2    -0.180000       12.0110           0
      5292 MEMB     39       POPC     H12X     HAL2     0.900000E-01   1.00800           0
      5293 MEMB     39       POPC     H12Y     HAL2     0.900000E-01   1.00800           0
      5294 MEMB     39       POPC     C313     CTL2    -0.180000       12.0110           0
      5295 MEMB     39       POPC     H13X     HAL2     0.900000E-01   1.00800           0
      5296 MEMB     39       POPC     H13Y     HAL2     0.900000E-01   1.00800           0
      5297 MEMB     39       POPC     C314     CTL2    -0.180000       12.0110           0
      5298 MEMB     39       POPC     H14X     HAL2     0.900000E-01   1.00800           0
      5299 MEMB     39       POPC     H14Y     HAL2     0.900000E-01   1.00800           0
      5300 MEMB     39       POPC     C315     CTL2    -0.180000       12.0110           0
      5301 MEMB     39       POPC     H15X     HAL2     0.900000E-01   1.00800           0
      5302 MEMB     39       POPC     H15Y     HAL2     0.900000E-01   1.00800           0
      5303 MEMB     39       POPC     C316     CTL3    -0.270000       12.0110           0
      5304 MEMB     39       POPC     H16X     HAL3     0.900000E-01   1.00800           0
      5305 MEMB     39       POPC     H16Y     HAL3     0.900000E-01   1.00800           0
      5306 MEMB     39       POPC     H16Z     HAL3     0.900000E-01   1.00800           0
      5307 MEMB     40       POPC     N        NTL     -0.600000       14.0070           0
      5308 MEMB     40       POPC     C12      CTL2    -0.100000       12.0110           0
      5309 MEMB     40       POPC     H12A     HL       0.250000       1.00800           0
      5310 MEMB     40       POPC     H12B     HL       0.250000       1.00800           0
      5311 MEMB     40       POPC     C13      CTL5    -0.350000       12.0110           0
      5312 MEMB     40       POPC     H13A     HL       0.250000       1.00800           0
      5313 MEMB     40       POPC     H13B     HL       0.250000       1.00800           0
      5314 MEMB     40       POPC     H13C     HL       0.250000       1.00800           0
      5315 MEMB     40       POPC     C14      CTL5    -0.350000       12.0110           0
      5316 MEMB     40       POPC     H14A     HL       0.250000       1.00800           0
      5317 MEMB     40       POPC     H14B     HL       0.250000       1.00800           0
      5318 MEMB     40       POPC     H14C     HL       0.250000       1.00800           0
      5319 MEMB     40       POPC     C15      CTL5    -0.350000       12.0110           0
      5320 MEMB     40       POPC     H15A     HL       0.250000       1.00800           0
      5321 MEMB     40       POPC     H15B     HL       0.250000       1.00800           0
      5322 MEMB     40       POPC     H15C     HL       0.250000       1.00800           0
      5323 MEMB     40       POPC     C11      CTL2    -0.800000E-01   12.0110           0
      5324 MEMB     40       POPC     H11A     HAL2     0.900000E-01   1.00800           0
      5325 MEMB     40       POPC     H11B     HAL2     0.900000E-01   1.00800           0
      5326 MEMB     40       POPC     P        PL       1.500000       30.9740           0
      5327 MEMB     40       POPC     O13      O2L     -0.780000       15.9994           0
      5328 MEMB     40       POPC     O14      O2L     -0.780000       15.9994           0
      5329 MEMB     40       POPC     O12      OSLP    -0.570000       15.9994           0
      5330 MEMB     40       POPC     O11      OSLP    -0.570000       15.9994           0
      5331 MEMB     40       POPC     C1       CTL2    -0.800000E-01   12.0110           0
      5332 MEMB     40       POPC     HA       HAL2     0.900000E-01   1.00800           0
      5333 MEMB     40       POPC     HB       HAL2     0.900000E-01   1.00800           0
      5334 MEMB     40       POPC     C2       CTL1     0.170000       12.0110           0
      5335 MEMB     40       POPC     HS       HAL1     0.900000E-01   1.00800           0
      5336 MEMB     40       POPC     O21      OSL     -0.490000       15.9994           0
      5337 MEMB     40       POPC     C21      CL       0.900000       12.0110           0
      5338 MEMB     40       POPC     O22      OBL     -0.630000       15.9994           0
      5339 MEMB     40       POPC     C22      CTL2    -0.220000       12.0110           0
      5340 MEMB     40       POPC     H2R      HAL2     0.900000E-01   1.00800           0
      5341 MEMB     40       POPC     H2S      HAL2     0.900000E-01   1.00800           0
      5342 MEMB     40       POPC     C3       CTL2     0.800000E-01   12.0110           0
      5343 MEMB     40       POPC     HX       HAL2     0.900000E-01   1.00800           0
      5344 MEMB     40       POPC     HY       HAL2     0.900000E-01   1.00800           0
      5345 MEMB     40       POPC     O31      OSL     -0.490000       15.9994           0
      5346 MEMB     40       POPC     C31      CL       0.900000       12.0110           0
      5347 MEMB     40       POPC     O32      OBL     -0.630000       15.9994           0
      5348 MEMB     40       POPC     C32      CTL2    -0.220000       12.0110           0
      5349 MEMB     40       POPC     H2X      HAL2     0.900000E-01   1.00800           0
      5350 MEMB     40       POPC     H2Y      HAL2     0.900000E-01   1.00800           0
      5351 MEMB     40       POPC     C23      CTL2    -0.180000       12.0110           0
      5352 MEMB     40       POPC     H3R      HAL2     0.900000E-01   1.00800           0
      5353 MEMB     40       POPC     H3S      HAL2     0.900000E-01   1.00800           0
      5354 MEMB     40       POPC     C24      CTL2    -0.180000       12.0110           0
      5355 MEMB     40       POPC     H4R      HAL2     0.900000E-01   1.00800           0
      5356 MEMB     40       POPC     H4S      HAL2     0.900000E-01   1.00800           0
      5357 MEMB     40       POPC     C25      CTL2    -0.180000       12.0110           0
      5358 MEMB     40       POPC     H5R      HAL2     0.900000E-01   1.00800           0
      5359 MEMB     40       POPC     H5S      HAL2     0.900000E-01   1.00800           0
      5360 MEMB     40       POPC     C26      CTL2    -0.180000       12.0110           0
      5361 MEMB     40       POPC     H6R      HAL2     0.900000E-01   1.00800           0
      5362 MEMB     40       POPC     H6S      HAL2     0.900000E-01   1.00800           0
      5363 MEMB     40       POPC     C27      CTL2    -0.180000       12.0110           0
      5364 MEMB     40       POPC     H7R      HAL2     0.900000E-01   1.00800           0
      5365 MEMB     40       POPC     H7S      HAL2     0.900000E-01   1.00800           0
      5366 MEMB     40       POPC     C28      CTL2    -0.180000       12.0110           0
      5367 MEMB     40       POPC     H8R      HAL2     0.900000E-01   1.00800           0
      5368 MEMB     40       POPC     H8S      HAL2     0.900000E-01   1.00800           0
      5369 MEMB     40       POPC     C29      CEL1    -0.150000       12.0110           0
      5370 MEMB     40       POPC     H91      HEL1     0.150000       1.00800           0
      5371 MEMB     40       POPC     C210     CEL1    -0.150000       12.0110           0
      5372 MEMB     40       POPC     H101     HEL1     0.150000       1.00800           0
      5373 MEMB     40       POPC     C211     CTL2    -0.180000       12.0110           0
      5374 MEMB     40       POPC     H11R     HAL2     0.900000E-01   1.00800           0
      5375 MEMB     40       POPC     H11S     HAL2     0.900000E-01   1.00800           0
      5376 MEMB     40       POPC     C212     CTL2    -0.180000       12.0110           0
      5377 MEMB     40       POPC     H12R     HAL2     0.900000E-01   1.00800           0
      5378 MEMB     40       POPC     H12S     HAL2     0.900000E-01   1.00800           0
      5379 MEMB     40       POPC     C213     CTL2    -0.180000       12.0110           0
      5380 MEMB     40       POPC     H13R     HAL2     0.900000E-01   1.00800           0
      5381 MEMB     40       POPC     H13S     HAL2     0.900000E-01   1.00800           0
      5382 MEMB     40       POPC     C214     CTL2    -0.180000       12.0110           0
      5383 MEMB     40       POPC     H14R     HAL2     0.900000E-01   1.00800           0
      5384 MEMB     40       POPC     H14S     HAL2     0.900000E-01   1.00800           0
      5385 MEMB     40       POPC     C215     CTL2    -0.180000       12.0110           0
      5386 MEMB     40       POPC     H15R     HAL2     0.900000E-01   1.00800           0
      5387 MEMB     40       POPC     H15S     HAL2     0.900000E-01   1.00800           0
      5388 MEMB     40       POPC     C216     CTL2    -0.180000       12.0110           0
      5389 MEMB     40       POPC     H16R     HAL2     0.900000E-01   1.00800           0
      5390 MEMB     40       POPC     H16S     HAL2     0.900000E-01   1.00800           0
      5391 MEMB     40       POPC     C217     CTL2    -0.180000       12.0110           0
      5392 MEMB     40       POPC     H17R     HAL2     0.900000E-01   1.00800           0
      5393 MEMB     40       POPC     H17S     HAL2     0.900000E-01   1.00800           0
      5394 MEMB     40       POPC     C218     CTL3    -0.270000       12.0110           0
      5395 MEMB     40       POPC     H18R     HAL3     0.900000E-01   1.00800           0
      5396 MEMB     40       POPC     H18S     HAL3     0.900000E-01   1.00800           0
      5397 MEMB     40       POPC     H18T     HAL3     0.900000E-01   1.00800           0
      5398 MEMB     40       POPC     C33      CTL2    -0.180000       12.0110           0
      5399 MEMB     40       POPC     H3X      HAL2     0.900000E-01   1.00800           0
      5400 MEMB     40       POPC     H3Y      HAL2     0.900000E-01   1.00800           0
      5401 MEMB     40       POPC     C34      CTL2    -0.180000       12.0110           0
      5402 MEMB     40       POPC     H4X      HAL2     0.900000E-01   1.00800           0
      5403 MEMB     40       POPC     H4Y      HAL2     0.900000E-01   1.00800           0
      5404 MEMB     40       POPC     C35      CTL2    -0.180000       12.0110           0
      5405 MEMB     40       POPC     H5X      HAL2     0.900000E-01   1.00800           0
      5406 MEMB     40       POPC     H5Y      HAL2     0.900000E-01   1.00800           0
      5407 MEMB     40       POPC     C36      CTL2    -0.180000       12.0110           0
      5408 MEMB     40       POPC     H6X      HAL2     0.900000E-01   1.00800           0
      5409 MEMB     40       POPC     H6Y      HAL2     0.900000E-01   1.00800           0
      5410 MEMB     40       POPC     C37      CTL2    -0.180000       12.0110           0
      5411 MEMB     40       POPC     H7X      HAL2     0.900000E-01   1.00800           0
      5412 MEMB     40       POPC     H7Y      HAL2     0.900000E-01   1.00800           0
      5413 MEMB     40       POPC     C38      CTL2    -0.180000       12.0110           0
      5414 MEMB     40       POPC     H8X      HAL2     0.900000E-01   1.00800           0
      5415 MEMB     40       POPC     H8Y      HAL2     0.900000E-01   1.00800           0
      5416 MEMB     40       POPC     C39      CTL2    -0.180000       12.0110           0
      5417 MEMB     40       POPC     H9X      HAL2     0.900000E-01   1.00800           0
      5418 MEMB     40       POPC     H9Y      HAL2     0.900000E-01   1.00800           0
      5419 MEMB     40       POPC     C310     CTL2    -0.180000       12.0110           0
      5420 MEMB     40       POPC     H10X     HAL2     0.900000E-01   1.00800           0
      5421 MEMB     40       POPC     H10Y     HAL2     0.900000E-01   1.00800           0
      5422 MEMB     40       POPC     C311     CTL2    -0.180000       12.0110           0
      5423 MEMB     40       POPC     H11X     HAL2     0.900000E-01   1.00800           0
      5424 MEMB     40       POPC     H11Y     HAL2     0.900000E-01   1.00800           0
      5425 MEMB     40       POPC     C312     CTL2    -0.180000       12.0110           0
      5426 MEMB     40       POPC     H12X     HAL2     0.900000E-01   1.00800           0
      5427 MEMB     40       POPC     H12Y     HAL2     0.900000E-01   1.00800           0
      5428 MEMB     40       POPC     C313     CTL2    -0.180000       12.0110           0
      5429 MEMB     40       POPC     H13X     HAL2     0.900000E-01   1.00800           0
      5430 MEMB     40       POPC     H13Y     HAL2     0.900000E-01   1.00800           0
      5431 MEMB     40       POPC     C314     CTL2    -0.180000       12.0110           0
      5432 MEMB     40       POPC     H14X     HAL2     0.900000E-01   1.00800           0
      5433 MEMB     40       POPC     H14Y     HAL2     0.900000E-01   1.00800           0
      5434 MEMB     40       POPC     C315     CTL2    -0.180000       12.0110           0
      5435 MEMB     40       POPC     H15X     HAL2     0.900000E-01   1.00800           0
      5436 MEMB     40       POPC     H15Y     HAL2     0.900000E-01   1.00800           0
      5437 MEMB     40       POPC     C316     CTL3    -0.270000       12.0110           0
      5438 MEMB     40       POPC     H16X     HAL3     0.900000E-01   1.00800           0
      5439 MEMB     40       POPC     H16Y     HAL3     0.900000E-01   1.00800           0
      5440 MEMB     40       POPC     H16Z     HAL3     0.900000E-01   1.00800           0
      5441 MEMB     41       POPC     N        NTL     -0.600000       14.0070           0
      5442 MEMB     41       POPC     C12      CTL2    -0.100000       12.0110           0
      5443 MEMB     41       POPC     H12A     HL       0.250000       1.00800           0
      5444 MEMB     41       POPC     H12B     HL       0.250000       1.00800           0
      5445 MEMB     41       POPC     C13      CTL5    -0.350000       12.0110           0
      5446 MEMB     41       POPC     H13A     HL       0.250000       1.00800           0
      5447 MEMB     41       POPC     H13B     HL       0.250000       1.00800           0
      5448 MEMB     41       POPC     H13C     HL       0.250000       1.00800           0
      5449 MEMB     41       POPC     C14      CTL5    -0.350000       12.0110           0
      5450 MEMB     41       POPC     H14A     HL       0.250000       1.00800           0
      5451 MEMB     41       POPC     H14B     HL       0.250000       1.00800           0
      5452 MEMB     41       POPC     H14C     HL       0.250000       1.00800           0
      5453 MEMB     41       POPC     C15      CTL5    -0.350000       12.0110           0
      5454 MEMB     41       POPC     H15A     HL       0.250000       1.00800           0
      5455 MEMB     41       POPC     H15B     HL       0.250000       1.00800           0
      5456 MEMB     41       POPC     H15C     HL       0.250000       1.00800           0
      5457 MEMB     41       POPC     C11      CTL2    -0.800000E-01   12.0110           0
      5458 MEMB     41       POPC     H11A     HAL2     0.900000E-01   1.00800           0
      5459 MEMB     41       POPC     H11B     HAL2     0.900000E-01   1.00800           0
      5460 MEMB     41       POPC     P        PL       1.500000       30.9740           0
      5461 MEMB     41       POPC     O13      O2L     -0.780000       15.9994           0
      5462 MEMB     41       POPC     O14      O2L     -0.780000       15.9994           0
      5463 MEMB     41       POPC     O12      OSLP    -0.570000       15.9994           0
      5464 MEMB     41       POPC     O11      OSLP    -0.570000       15.9994           0
      5465 MEMB     41       POPC     C1       CTL2    -0.800000E-01   12.0110           0
      5466 MEMB     41       POPC     HA       HAL2     0.900000E-01   1.00800           0
      5467 MEMB     41       POPC     HB       HAL2     0.900000E-01   1.00800           0
      5468 MEMB     41       POPC     C2       CTL1     0.170000       12.0110           0
      5469 MEMB     41       POPC     HS       HAL1     0.900000E-01   1.00800           0
      5470 MEMB     41       POPC     O21      OSL     -0.490000       15.9994           0
      5471 MEMB     41       POPC     C21      CL       0.900000       12.0110           0
      5472 MEMB     41       POPC     O22      OBL     -0.630000       15.9994           0
      5473 MEMB     41       POPC     C22      CTL2    -0.220000       12.0110           0
      5474 MEMB     41       POPC     H2R      HAL2     0.900000E-01   1.00800           0
      5475 MEMB     41       POPC     H2S      HAL2     0.900000E-01   1.00800           0
      5476 MEMB     41       POPC     C3       CTL2     0.800000E-01   12.0110           0
      5477 MEMB     41       POPC     HX       HAL2     0.900000E-01   1.00800           0
      5478 MEMB     41       POPC     HY       HAL2     0.900000E-01   1.00800           0
      5479 MEMB     41       POPC     O31      OSL     -0.490000       15.9994           0
      5480 MEMB     41       POPC     C31      CL       0.900000       12.0110           0
      5481 MEMB     41       POPC     O32      OBL     -0.630000       15.9994           0
      5482 MEMB     41       POPC     C32      CTL2    -0.220000       12.0110           0
      5483 MEMB     41       POPC     H2X      HAL2     0.900000E-01   1.00800           0
      5484 MEMB     41       POPC     H2Y      HAL2     0.900000E-01   1.00800           0
      5485 MEMB     41       POPC     C23      CTL2    -0.180000       12.0110           0
      5486 MEMB     41       POPC     H3R      HAL2     0.900000E-01   1.00800           0
      5487 MEMB     41       POPC     H3S      HAL2     0.900000E-01   1.00800           0
      5488 MEMB     41       POPC     C24      CTL2    -0.180000       12.0110           0
      5489 MEMB     41       POPC     H4R      HAL2     0.900000E-01   1.00800           0
      5490 MEMB     41       POPC     H4S      HAL2     0.900000E-01   1.00800           0
      5491 MEMB     41       POPC     C25      CTL2    -0.180000       12.0110           0
      5492 MEMB     41       POPC     H5R      HAL2     0.900000E-01   1.00800           0
      5493 MEMB     41       POPC     H5S      HAL2     0.900000E-01   1.00800           0
      5494 MEMB     41       POPC     C26      CTL2    -0.180000       12.0110           0
      5495 MEMB     41       POPC     H6R      HAL2     0.900000E-01   1.00800           0
      5496 MEMB     41       POPC     H6S      HAL2     0.900000E-01   1.00800           0
      5497 MEMB     41       POPC     C27      CTL2    -0.180000       12.0110           0
      5498 MEMB     41       POPC     H7R      HAL2     0.900000E-01   1.00800           0
      5499 MEMB     41       POPC     H7S      HAL2     0.900000E-01   1.00800           0
      5500 MEMB     41       POPC     C28      CTL2    -0.180000       12.0110           0
      5501 MEMB     41       POPC     H8R      HAL2     0.900000E-01   1.00800           0
      5502 MEMB     41       POPC     H8S      HAL2     0.900000E-01   1.00800           0
      5503 MEMB     41       POPC     C29      CEL1    -0.150000       12.0110           0
      5504 MEMB     41       POPC     H91      HEL1     0.150000       1.00800           0
      5505 MEMB     41       POPC     C210     CEL1    -0.150000       12.0110           0
      5506 MEMB     41       POPC     H101     HEL1     0.150000       1.00800           0
      5507 MEMB     41       POPC     C211     CTL2    -0.180000       12.0110           0
      5508 MEMB     41       POPC     H11R     HAL2     0.900000E-01   1.00800           0
      5509 MEMB     41       POPC     H11S     HAL2     0.900000E-01   1.00800           0
      5510 MEMB     41       POPC     C212     CTL2    -0.180000       12.0110           0
      5511 MEMB     41       POPC     H12R     HAL2     0.900000E-01   1.00800           0
      5512 MEMB     41       POPC     H12S     HAL2     0.900000E-01   1.00800           0
      5513 MEMB     41       POPC     C213     CTL2    -0.180000       12.0110           0
      5514 MEMB     41       POPC     H13R     HAL2     0.900000E-01   1.00800           0
      5515 MEMB     41       POPC     H13S     HAL2     0.900000E-01   1.00800           0
      5516 MEMB     41       POPC     C214     CTL2    -0.180000       12.0110           0
      5517 MEMB     41       POPC     H14R     HAL2     0.900000E-01   1.00800           0
      5518 MEMB     41       POPC     H14S     HAL2     0.900000E-01   1.00800           0
      5519 MEMB     41       POPC     C215     CTL2    -0.180000       12.0110           0
      5520 MEMB     41       POPC     H15R     HAL2     0.900000E-01   1.00800           0
      5521 MEMB     41       POPC     H15S     HAL2     0.900000E-01   1.00800           0
      5522 MEMB     41       POPC     C216     CTL2    -0.180000       12.0110           0
      5523 MEMB     41       POPC     H16R     HAL2     0.900000E-01   1.00800           0
      5524 MEMB     41       POPC     H16S     HAL2     0.900000E-01   1.00800           0
      5525 MEMB     41       POPC     C217     CTL2    -0.180000       12.0110           0
      5526 MEMB     41       POPC     H17R     HAL2     0.900000E-01   1.00800           0
      5527 MEMB     41       POPC     H17S     HAL2     0.900000E-01   1.00800           0
      5528 MEMB     41       POPC     C218     CTL3    -0.270000       12.0110           0
      5529 MEMB     41       POPC     H18R     HAL3     0.900000E-01   1.00800           0
      5530 MEMB     41       POPC     H18S     HAL3     0.900000E-01   1.00800           0
      5531 MEMB     41       POPC     H18T     HAL3     0.900000E-01   1.00800           0
      5532 MEMB     41       POPC     C33      CTL2    -0.180000       12.0110           0
      5533 MEMB     41       POPC     H3X      HAL2     0.900000E-01   1.00800           0
      5534 MEMB     41       POPC     H3Y      HAL2     0.900000E-01   1.00800           0
      5535 MEMB     41       POPC     C34      CTL2    -0.180000       12.0110           0
      5536 MEMB     41       POPC     H4X      HAL2     0.900000E-01   1.00800           0
      5537 MEMB     41       POPC     H4Y      HAL2     0.900000E-01   1.00800           0
      5538 MEMB     41       POPC     C35      CTL2    -0.180000       12.0110           0
      5539 MEMB     41       POPC     H5X      HAL2     0.900000E-01   1.00800           0
      5540 MEMB     41       POPC     H5Y      HAL2     0.900000E-01   1.00800           0
      5541 MEMB     41       POPC     C36      CTL2    -0.180000       12.0110           0
      5542 MEMB     41       POPC     H6X      HAL2     0.900000E-01   1.00800           0
      5543 MEMB     41       POPC     H6Y      HAL2     0.900000E-01   1.00800           0
      5544 MEMB     41       POPC     C37      CTL2    -0.180000       12.0110           0
      5545 MEMB     41       POPC     H7X      HAL2     0.900000E-01   1.00800           0
      5546 MEMB     41       POPC     H7Y      HAL2     0.900000E-01   1.00800           0
      5547 MEMB     41       POPC     C38      CTL2    -0.180000       12.0110           0
      5548 MEMB     41       POPC     H8X      HAL2     0.900000E-01   1.00800           0
      5549 MEMB     41       POPC     H8Y      HAL2     0.900000E-01   1.00800           0
      5550 MEMB     41       POPC     C39      CTL2    -0.180000       12.0110           0
      5551 MEMB     41       POPC     H9X      HAL2     0.900000E-01   1.00800           0
      5552 MEMB     41       POPC     H9Y      HAL2     0.900000E-01   1.00800           0
      5553 MEMB     41       POPC     C310     CTL2    -0.180000       12.0110           0
      5554 MEMB     41       POPC     H10X     HAL2     0.900000E-01   1.00800           0
      5555 MEMB     41       POPC     H10Y     HAL2     0.900000E-01   1.00800           0
      5556 MEMB     41       POPC     C311     CTL2    -0.180000       12.0110           0
      5557 MEMB     41       POPC     H11X     HAL2     0.900000E-01   1.00800           0
      5558 MEMB     41       POPC     H11Y     HAL2     0.900000E-01   1.00800           0
      5559 MEMB     41       POPC     C312     CTL2    -0.180000       12.0110           0
      5560 MEMB     41       POPC     H12X     HAL2     0.900000E-01   1.00800           0
      5561 MEMB     41       POPC     H12Y     HAL2     0.900000E-01   1.00800           0
      5562 MEMB     41       POPC     C313     CTL2    -0.180000       12.0110           0
      5563 MEMB     41       POPC     H13X     HAL2     0.900000E-01   1.00800           0
      5564 MEMB     41       POPC     H13Y     HAL2     0.900000E-01   1.00800           0
      5565 MEMB     41       POPC     C314     CTL2    -0.180000       12.0110           0
      5566 MEMB     41       POPC     H14X     HAL2     0.900000E-01   1.00800           0
      5567 MEMB     41       POPC     H14Y     HAL2     0.900000E-01   1.00800           0
      5568 MEMB     41       POPC     C315     CTL2    -0.180000       12.0110           0
      5569 MEMB     41       POPC     H15X     HAL2     0.900000E-01   1.00800           0
      5570 MEMB     41       POPC     H15Y     HAL2     0.900000E-01   1.00800           0
      5571 MEMB     41       POPC     C316     CTL3    -0.270000       12.0110           0
      5572 MEMB     41       POPC     H16X     HAL3     0.900000E-01   1.00800           0
      5573 MEMB     41       POPC     H16Y     HAL3     0.900000E-01   1.00800           0
      5574 MEMB     41       POPC     H16Z     HAL3     0.900000E-01   1.00800           0
      5575 MEMB     42       POPC     N        NTL     -0.600000       14.0070           0
      5576 MEMB     42       POPC     C12      CTL2    -0.100000       12.0110           0
      5577 MEMB     42       POPC     H12A     HL       0.250000       1.00800           0
      5578 MEMB     42       POPC     H12B     HL       0.250000       1.00800           0
      5579 MEMB     42       POPC     C13      CTL5    -0.350000       12.0110           0
      5580 MEMB     42       POPC     H13A     HL       0.250000       1.00800           0
      5581 MEMB     42       POPC     H13B     HL       0.250000       1.00800           0
      5582 MEMB     42       POPC     H13C     HL       0.250000       1.00800           0
      5583 MEMB     42       POPC     C14      CTL5    -0.350000       12.0110           0
      5584 MEMB     42       POPC     H14A     HL       0.250000       1.00800           0
      5585 MEMB     42       POPC     H14B     HL       0.250000       1.00800           0
      5586 MEMB     42       POPC     H14C     HL       0.250000       1.00800           0
      5587 MEMB     42       POPC     C15      CTL5    -0.350000       12.0110           0
      5588 MEMB     42       POPC     H15A     HL       0.250000       1.00800           0
      5589 MEMB     42       POPC     H15B     HL       0.250000       1.00800           0
      5590 MEMB     42       POPC     H15C     HL       0.250000       1.00800           0
      5591 MEMB     42       POPC     C11      CTL2    -0.800000E-01   12.0110           0
      5592 MEMB     42       POPC     H11A     HAL2     0.900000E-01   1.00800           0
      5593 MEMB     42       POPC     H11B     HAL2     0.900000E-01   1.00800           0
      5594 MEMB     42       POPC     P        PL       1.500000       30.9740           0
      5595 MEMB     42       POPC     O13      O2L     -0.780000       15.9994           0
      5596 MEMB     42       POPC     O14      O2L     -0.780000       15.9994           0
      5597 MEMB     42       POPC     O12      OSLP    -0.570000       15.9994           0
      5598 MEMB     42       POPC     O11      OSLP    -0.570000       15.9994           0
      5599 MEMB     42       POPC     C1       CTL2    -0.800000E-01   12.0110           0
      5600 MEMB     42       POPC     HA       HAL2     0.900000E-01   1.00800           0
      5601 MEMB     42       POPC     HB       HAL2     0.900000E-01   1.00800           0
      5602 MEMB     42       POPC     C2       CTL1     0.170000       12.0110           0
      5603 MEMB     42       POPC     HS       HAL1     0.900000E-01   1.00800           0
      5604 MEMB     42       POPC     O21      OSL     -0.490000       15.9994           0
      5605 MEMB     42       POPC     C21      CL       0.900000       12.0110           0
      5606 MEMB     42       POPC     O22      OBL     -0.630000       15.9994           0
      5607 MEMB     42       POPC     C22      CTL2    -0.220000       12.0110           0
      5608 MEMB     42       POPC     H2R      HAL2     0.900000E-01   1.00800           0
      5609 MEMB     42       POPC     H2S      HAL2     0.900000E-01   1.00800           0
      5610 MEMB     42       POPC     C3       CTL2     0.800000E-01   12.0110           0
      5611 MEMB     42       POPC     HX       HAL2     0.900000E-01   1.00800           0
      5612 MEMB     42       POPC     HY       HAL2     0.900000E-01   1.00800           0
      5613 MEMB     42       POPC     O31      OSL     -0.490000       15.9994           0
      5614 MEMB     42       POPC     C31      CL       0.900000       12.0110           0
      5615 MEMB     42       POPC     O32      OBL     -0.630000       15.9994           0
      5616 MEMB     42       POPC     C32      CTL2    -0.220000       12.0110           0
      5617 MEMB     42       POPC     H2X      HAL2     0.900000E-01   1.00800           0
      5618 MEMB     42       POPC     H2Y      HAL2     0.900000E-01   1.00800           0
      5619 MEMB     42       POPC     C23      CTL2    -0.180000       12.0110           0
      5620 MEMB     42       POPC     H3R      HAL2     0.900000E-01   1.00800           0
      5621 MEMB     42       POPC     H3S      HAL2     0.900000E-01   1.00800           0
      5622 MEMB     42       POPC     C24      CTL2    -0.180000       12.0110           0
      5623 MEMB     42       POPC     H4R      HAL2     0.900000E-01   1.00800           0
      5624 MEMB     42       POPC     H4S      HAL2     0.900000E-01   1.00800           0
      5625 MEMB     42       POPC     C25      CTL2    -0.180000       12.0110           0
      5626 MEMB     42       POPC     H5R      HAL2     0.900000E-01   1.00800           0
      5627 MEMB     42       POPC     H5S      HAL2     0.900000E-01   1.00800           0
      5628 MEMB     42       POPC     C26      CTL2    -0.180000       12.0110           0
      5629 MEMB     42       POPC     H6R      HAL2     0.900000E-01   1.00800           0
      5630 MEMB     42       POPC     H6S      HAL2     0.900000E-01   1.00800           0
      5631 MEMB     42       POPC     C27      CTL2    -0.180000       12.0110           0
      5632 MEMB     42       POPC     H7R      HAL2     0.900000E-01   1.00800           0
      5633 MEMB     42       POPC     H7S      HAL2     0.900000E-01   1.00800           0
      5634 MEMB     42       POPC     C28      CTL2    -0.180000       12.0110           0
      5635 MEMB     42       POPC     H8R      HAL2     0.900000E-01   1.00800           0
      5636 MEMB     42       POPC     H8S      HAL2     0.900000E-01   1.00800           0
      5637 MEMB     42       POPC     C29      CEL1    -0.150000       12.0110           0
      5638 MEMB     42       POPC     H91      HEL1     0.150000       1.00800           0
      5639 MEMB     42       POPC     C210     CEL1    -0.150000       12.0110           0
      5640 MEMB     42       POPC     H101     HEL1     0.150000       1.00800           0
      5641 MEMB     42       POPC     C211     CTL2    -0.180000       12.0110           0
      5642 MEMB     42       POPC     H11R     HAL2     0.900000E-01   1.00800           0
      5643 MEMB     42       POPC     H11S     HAL2     0.900000E-01   1.00800           0
      5644 MEMB     42       POPC     C212     CTL2    -0.180000       12.0110           0
      5645 MEMB     42       POPC     H12R     HAL2     0.900000E-01   1.00800           0
      5646 MEMB     42       POPC     H12S     HAL2     0.900000E-01   1.00800           0
      5647 MEMB     42       POPC     C213     CTL2    -0.180000       12.0110           0
      5648 MEMB     42       POPC     H13R     HAL2     0.900000E-01   1.00800           0
      5649 MEMB     42       POPC     H13S     HAL2     0.900000E-01   1.00800           0
      5650 MEMB     42       POPC     C214     CTL2    -0.180000       12.0110           0
      5651 MEMB     42       POPC     H14R     HAL2     0.900000E-01   1.00800           0
      5652 MEMB     42       POPC     H14S     HAL2     0.900000E-01   1.00800           0
      5653 MEMB     42       POPC     C215     CTL2    -0.180000       12.0110           0
      5654 MEMB     42       POPC     H15R     HAL2     0.900000E-01   1.00800           0
      5655 MEMB     42       POPC     H15S     HAL2     0.900000E-01   1.00800           0
      5656 MEMB     42       POPC     C216     CTL2    -0.180000       12.0110           0
      5657 MEMB     42       POPC     H16R     HAL2     0.900000E-01   1.00800           0
      5658 MEMB     42       POPC     H16S     HAL2     0.900000E-01   1.00800           0
      5659 MEMB     42       POPC     C217     CTL2    -0.180000       12.0110           0
      5660 MEMB     42       POPC     H17R     HAL2     0.900000E-01   1.00800           0
      5661 MEMB     42       POPC     H17S     HAL2     0.900000E-01   1.00800           0
      5662 MEMB     42       POPC     C218     CTL3    -0.270000       12.0110           0
      5663 MEMB     42       POPC     H18R     HAL3     0.900000E-01   1.00800           0
      5664 MEMB     42       POPC     H18S     HAL3     0.900000E-01   1.00800           0
      5665 MEMB     42       POPC     H18T     HAL3     0.900000E-01   1.00800           0
      5666 MEMB     42       POPC     C33      CTL2    -0.180000       12.0110           0
      5667 MEMB     42       POPC     H3X      HAL2     0.900000E-01   1.00800           0
      5668 MEMB     42       POPC     H3Y      HAL2     0.900000E-01   1.00800           0
      5669 MEMB     42       POPC     C34      CTL2    -0.180000       12.0110           0
      5670 MEMB     42       POPC     H4X      HAL2     0.900000E-01   1.00800           0
      5671 MEMB     42       POPC     H4Y      HAL2     0.900000E-01   1.00800           0
      5672 MEMB     42       POPC     C35      CTL2    -0.180000       12.0110           0
      5673 MEMB     42       POPC     H5X      HAL2     0.900000E-01   1.00800           0
      5674 MEMB     42       POPC     H5Y      HAL2     0.900000E-01   1.00800           0
      5675 MEMB     42       POPC     C36      CTL2    -0.180000       12.0110           0
      5676 MEMB     42       POPC     H6X      HAL2     0.900000E-01   1.00800           0
      5677 MEMB     42       POPC     H6Y      HAL2     0.900000E-01   1.00800           0
      5678 MEMB     42       POPC     C37      CTL2    -0.180000       12.0110           0
      5679 MEMB     42       POPC     H7X      HAL2     0.900000E-01   1.00800           0
      5680 MEMB     42       POPC     H7Y      HAL2     0.900000E-01   1.00800           0
      5681 MEMB     42       POPC     C38      CTL2    -0.180000       12.0110           0
      5682 MEMB     42       POPC     H8X      HAL2     0.900000E-01   1.00800           0
      5683 MEMB     42       POPC     H8Y      HAL2     0.900000E-01   1.00800           0
      5684 MEMB     42       POPC     C39      CTL2    -0.180000       12.0110           0
      5685 MEMB     42       POPC     H9X      HAL2     0.900000E-01   1.00800           0
      5686 MEMB     42       POPC     H9Y      HAL2     0.900000E-01   1.00800           0
      5687 MEMB     42       POPC     C310     CTL2    -0.180000       12.0110           0
      5688 MEMB     42       POPC     H10X     HAL2     0.900000E-01   1.00800           0
      5689 MEMB     42       POPC     H10Y     HAL2     0.900000E-01   1.00800           0
      5690 MEMB     42       POPC     C311     CTL2    -0.180000       12.0110           0
      5691 MEMB     42       POPC     H11X     HAL2     0.900000E-01   1.00800           0
      5692 MEMB     42       POPC     H11Y     HAL2     0.900000E-01   1.00800           0
      5693 MEMB     42       POPC     C312     CTL2    -0.180000       12.0110           0
      5694 MEMB     42       POPC     H12X     HAL2     0.900000E-01   1.00800           0
      5695 MEMB     42       POPC     H12Y     HAL2     0.900000E-01   1.00800           0
      5696 MEMB     42       POPC     C313     CTL2    -0.180000       12.0110           0
      5697 MEMB     42       POPC     H13X     HAL2     0.900000E-01   1.00800           0
      5698 MEMB     42       POPC     H13Y     HAL2     0.900000E-01   1.00800           0
      5699 MEMB     42       POPC     C314     CTL2    -0.180000       12.0110           0
      5700 MEMB     42       POPC     H14X     HAL2     0.900000E-01   1.00800           0
      5701 MEMB     42       POPC     H14Y     HAL2     0.900000E-01   1.00800           0
      5702 MEMB     42       POPC     C315     CTL2    -0.180000       12.0110           0
      5703 MEMB     42       POPC     H15X     HAL2     0.900000E-01   1.00800           0
      5704 MEMB     42       POPC     H15Y     HAL2     0.900000E-01   1.00800           0
      5705 MEMB     42       POPC     C316     CTL3    -0.270000       12.0110           0
      5706 MEMB     42       POPC     H16X     HAL3     0.900000E-01   1.00800           0
      5707 MEMB     42       POPC     H16Y     HAL3     0.900000E-01   1.00800           0
      5708 MEMB     42       POPC     H16Z     HAL3     0.900000E-01   1.00800           0
      5709 MEMB     43       POPS     N        NH3L    -0.300000       14.0070           0
      5710 MEMB     43       POPS     HN1      HCL      0.330000       1.00800           0
      5711 MEMB     43       POPS     HN2      HCL      0.330000       1.00800           0
      5712 MEMB     43       POPS     HN3      HCL      0.330000       1.00800           0
      5713 MEMB     43       POPS     C12      CTL1     0.210000       12.0110           0
      5714 MEMB     43       POPS     H12A     HBL      0.100000       1.00800           0
      5715 MEMB     43       POPS     C13      CCL      0.340000       12.0110           0
      5716 MEMB     43       POPS     O13A     OCL     -0.670000       15.9994           0
      5717 MEMB     43       POPS     O13B     OCL     -0.670000       15.9994           0
      5718 MEMB     43       POPS     C11      CTL2    -0.800000E-01   12.0110           0
      5719 MEMB     43       POPS     H11A     HAL2     0.900000E-01   1.00800           0
      5720 MEMB     43       POPS     H11B     HAL2     0.900000E-01   1.00800           0
      5721 MEMB     43       POPS     P        PL       1.500000       30.9740           0
      5722 MEMB     43       POPS     O13      O2L     -0.780000       15.9994           0
      5723 MEMB     43       POPS     O14      O2L     -0.780000       15.9994           0
      5724 MEMB     43       POPS     O12      OSLP    -0.570000       15.9994           0
      5725 MEMB     43       POPS     O11      OSLP    -0.570000       15.9994           0
      5726 MEMB     43       POPS     C1       CTL2    -0.800000E-01   12.0110           0
      5727 MEMB     43       POPS     HA       HAL2     0.900000E-01   1.00800           0
      5728 MEMB     43       POPS     HB       HAL2     0.900000E-01   1.00800           0
      5729 MEMB     43       POPS     C2       CTL1     0.170000       12.0110           0
      5730 MEMB     43       POPS     HS       HAL1     0.900000E-01   1.00800           0
      5731 MEMB     43       POPS     O21      OSL     -0.490000       15.9994           0
      5732 MEMB     43       POPS     C21      CL       0.900000       12.0110           0
      5733 MEMB     43       POPS     O22      OBL     -0.630000       15.9994           0
      5734 MEMB     43       POPS     C22      CTL2    -0.220000       12.0110           0
      5735 MEMB     43       POPS     H2R      HAL2     0.900000E-01   1.00800           0
      5736 MEMB     43       POPS     H2S      HAL2     0.900000E-01   1.00800           0
      5737 MEMB     43       POPS     C3       CTL2     0.800000E-01   12.0110           0
      5738 MEMB     43       POPS     HX       HAL2     0.900000E-01   1.00800           0
      5739 MEMB     43       POPS     HY       HAL2     0.900000E-01   1.00800           0
      5740 MEMB     43       POPS     O31      OSL     -0.490000       15.9994           0
      5741 MEMB     43       POPS     C31      CL       0.900000       12.0110           0
      5742 MEMB     43       POPS     O32      OBL     -0.630000       15.9994           0
      5743 MEMB     43       POPS     C32      CTL2    -0.220000       12.0110           0
      5744 MEMB     43       POPS     H2X      HAL2     0.900000E-01   1.00800           0
      5745 MEMB     43       POPS     H2Y      HAL2     0.900000E-01   1.00800           0
      5746 MEMB     43       POPS     C23      CTL2    -0.180000       12.0110           0
      5747 MEMB     43       POPS     H3R      HAL2     0.900000E-01   1.00800           0
      5748 MEMB     43       POPS     H3S      HAL2     0.900000E-01   1.00800           0
      5749 MEMB     43       POPS     C24      CTL2    -0.180000       12.0110           0
      5750 MEMB     43       POPS     H4R      HAL2     0.900000E-01   1.00800           0
      5751 MEMB     43       POPS     H4S      HAL2     0.900000E-01   1.00800           0
      5752 MEMB     43       POPS     C25      CTL2    -0.180000       12.0110           0
      5753 MEMB     43       POPS     H5R      HAL2     0.900000E-01   1.00800           0
      5754 MEMB     43       POPS     H5S      HAL2     0.900000E-01   1.00800           0
      5755 MEMB     43       POPS     C26      CTL2    -0.180000       12.0110           0
      5756 MEMB     43       POPS     H6R      HAL2     0.900000E-01   1.00800           0
      5757 MEMB     43       POPS     H6S      HAL2     0.900000E-01   1.00800           0
      5758 MEMB     43       POPS     C27      CTL2    -0.180000       12.0110           0
      5759 MEMB     43       POPS     H7R      HAL2     0.900000E-01   1.00800           0
      5760 MEMB     43       POPS     H7S      HAL2     0.900000E-01   1.00800           0
      5761 MEMB     43       POPS     C28      CTL2    -0.180000       12.0110           0
      5762 MEMB     43       POPS     H8R      HAL2     0.900000E-01   1.00800           0
      5763 MEMB     43       POPS     H8S      HAL2     0.900000E-01   1.00800           0
      5764 MEMB     43       POPS     C29      CEL1    -0.150000       12.0110           0
      5765 MEMB     43       POPS     H91      HEL1     0.150000       1.00800           0
      5766 MEMB     43       POPS     C210     CEL1    -0.150000       12.0110           0
      5767 MEMB     43       POPS     H101     HEL1     0.150000       1.00800           0
      5768 MEMB     43       POPS     C211     CTL2    -0.180000       12.0110           0
      5769 MEMB     43       POPS     H11R     HAL2     0.900000E-01   1.00800           0
      5770 MEMB     43       POPS     H11S     HAL2     0.900000E-01   1.00800           0
      5771 MEMB     43       POPS     C212     CTL2    -0.180000       12.0110           0
      5772 MEMB     43       POPS     H12R     HAL2     0.900000E-01   1.00800           0
      5773 MEMB     43       POPS     H12S     HAL2     0.900000E-01   1.00800           0
      5774 MEMB     43       POPS     C213     CTL2    -0.180000       12.0110           0
      5775 MEMB     43       POPS     H13R     HAL2     0.900000E-01   1.00800           0
      5776 MEMB     43       POPS     H13S     HAL2     0.900000E-01   1.00800           0
      5777 MEMB     43       POPS     C214     CTL2    -0.180000       12.0110           0
      5778 MEMB     43       POPS     H14R     HAL2     0.900000E-01   1.00800           0
      5779 MEMB     43       POPS     H14S     HAL2     0.900000E-01   1.00800           0
      5780 MEMB     43       POPS     C215     CTL2    -0.180000       12.0110           0
      5781 MEMB     43       POPS     H15R     HAL2     0.900000E-01   1.00800           0
      5782 MEMB     43       POPS     H15S     HAL2     0.900000E-01   1.00800           0
      5783 MEMB     43       POPS     C216     CTL2    -0.180000       12.0110           0
      5784 MEMB     43       POPS     H16R     HAL2     0.900000E-01   1.00800           0
      5785 MEMB     43       POPS     H16S     HAL2     0.900000E-01   1.00800           0
      5786 MEMB     43       POPS     C217     CTL2    -0.180000       12.0110           0
      5787 MEMB     43       POPS     H17R     HAL2     0.900000E-01   1.00800           0
      5788 MEMB     43       POPS     H17S     HAL2     0.900000E-01   1.00800           0
      5789 MEMB     43       POPS     C218     CTL3    -0.270000       12.0110           0
      5790 MEMB     43       POPS     H18R     HAL3     0.900000E-01   1.00800           0
      5791 MEMB     43       POPS     H18S     HAL3     0.900000E-01   1.00800           0
      5792 MEMB     43       POPS     H18T     HAL3     0.900000E-01   1.00800           0
      5793 MEMB     43       POPS     C33      CTL2    -0.180000       12.0110           0
      5794 MEMB     43       POPS     H3X      HAL2     0.900000E-01   1.00800           0
      5795 MEMB     43       POPS     H3Y      HAL2     0.900000E-01   1.00800           0
      5796 MEMB     43       POPS     C34      CTL2    -0.180000       12.0110           0
      5797 MEMB     43       POPS     H4X      HAL2     0.900000E-01   1.00800           0
      5798 MEMB     43       POPS     H4Y      HAL2     0.900000E-01   1.00800           0
      5799 MEMB     43       POPS     C35      CTL2    -0.180000       12.0110           0
      5800 MEMB     43       POPS     H5X      HAL2     0.900000E-01   1.00800           0
      5801 MEMB     43       POPS     H5Y      HAL2     0.900000E-01   1.00800           0
      5802 MEMB     43       POPS     C36      CTL2    -0.180000       12.0110           0
      5803 MEMB     43       POPS     H6X      HAL2     0.900000E-01   1.00800           0
      5804 MEMB     43       POPS     H6Y      HAL2     0.900000E-01   1.00800           0
      5805 MEMB     43       POPS     C37      CTL2    -0.180000       12.0110           0
      5806 MEMB     43       POPS     H7X      HAL2     0.900000E-01   1.00800           0
      5807 MEMB     43       POPS     H7Y      HAL2     0.900000E-01   1.00800           0
      5808 MEMB     43       POPS     C38      CTL2    -0.180000       12.0110           0
      5809 MEMB     43       POPS     H8X      HAL2     0.900000E-01   1.00800           0
      5810 MEMB     43       POPS     H8Y      HAL2     0.900000E-01   1.00800           0
      5811 MEMB     43       POPS     C39      CTL2    -0.180000       12.0110           0
      5812 MEMB     43       POPS     H9X      HAL2     0.900000E-01   1.00800           0
      5813 MEMB     43       POPS     H9Y      HAL2     0.900000E-01   1.00800           0
      5814 MEMB     43       POPS     C310     CTL2    -0.180000       12.0110           0
      5815 MEMB     43       POPS     H10X     HAL2     0.900000E-01   1.00800           0
      5816 MEMB     43       POPS     H10Y     HAL2     0.900000E-01   1.00800           0
      5817 MEMB     43       POPS     C311     CTL2    -0.180000       12.0110           0
      5818 MEMB     43       POPS     H11X     HAL2     0.900000E-01   1.00800           0
      5819 MEMB     43       POPS     H11Y     HAL2     0.900000E-01   1.00800           0
      5820 MEMB     43       POPS     C312     CTL2    -0.180000       12.0110           0
      5821 MEMB     43       POPS     H12X     HAL2     0.900000E-01   1.00800           0
      5822 MEMB     43       POPS     H12Y     HAL2     0.900000E-01   1.00800           0
      5823 MEMB     43       POPS     C313     CTL2    -0.180000       12.0110           0
      5824 MEMB     43       POPS     H13X     HAL2     0.900000E-01   1.00800           0
      5825 MEMB     43       POPS     H13Y     HAL2     0.900000E-01   1.00800           0
      5826 MEMB     43       POPS     C314     CTL2    -0.180000       12.0110           0
      5827 MEMB     43       POPS     H14X     HAL2     0.900000E-01   1.00800           0
      5828 MEMB     43       POPS     H14Y     HAL2     0.900000E-01   1.00800           0
      5829 MEMB     43       POPS     C315     CTL2    -0.180000       12.0110           0
      5830 MEMB     43       POPS     H15X     HAL2     0.900000E-01   1.00800           0
      5831 MEMB     43       POPS     H15Y     HAL2     0.900000E-01   1.00800           0
      5832 MEMB     43       POPS     C316     CTL3    -0.270000       12.0110           0
      5833 MEMB     43       POPS     H16X     HAL3     0.900000E-01   1.00800           0
      5834 MEMB     43       POPS     H16Y     HAL3     0.900000E-01   1.00800           0
      5835 MEMB     43       POPS     H16Z     HAL3     0.900000E-01   1.00800           0
      5836 MEMB     44       POPC     N        NTL     -0.600000       14.0070           0
      5837 MEMB     44       POPC     C12      CTL2    -0.100000       12.0110           0
      5838 MEMB     44       POPC     H12A     HL       0.250000       1.00800           0
      5839 MEMB     44       POPC     H12B     HL       0.250000       1.00800           0
      5840 MEMB     44       POPC     C13      CTL5    -0.350000       12.0110           0
      5841 MEMB     44       POPC     H13A     HL       0.250000       1.00800           0
      5842 MEMB     44       POPC     H13B     HL       0.250000       1.00800           0
      5843 MEMB     44       POPC     H13C     HL       0.250000       1.00800           0
      5844 MEMB     44       POPC     C14      CTL5    -0.350000       12.0110           0
      5845 MEMB     44       POPC     H14A     HL       0.250000       1.00800           0
      5846 MEMB     44       POPC     H14B     HL       0.250000       1.00800           0
      5847 MEMB     44       POPC     H14C     HL       0.250000       1.00800           0
      5848 MEMB     44       POPC     C15      CTL5    -0.350000       12.0110           0
      5849 MEMB     44       POPC     H15A     HL       0.250000       1.00800           0
      5850 MEMB     44       POPC     H15B     HL       0.250000       1.00800           0
      5851 MEMB     44       POPC     H15C     HL       0.250000       1.00800           0
      5852 MEMB     44       POPC     C11      CTL2    -0.800000E-01   12.0110           0
      5853 MEMB     44       POPC     H11A     HAL2     0.900000E-01   1.00800           0
      5854 MEMB     44       POPC     H11B     HAL2     0.900000E-01   1.00800           0
      5855 MEMB     44       POPC     P        PL       1.500000       30.9740           0
      5856 MEMB     44       POPC     O13      O2L     -0.780000       15.9994           0
      5857 MEMB     44       POPC     O14      O2L     -0.780000       15.9994           0
      5858 MEMB     44       POPC     O12      OSLP    -0.570000       15.9994           0
      5859 MEMB     44       POPC     O11      OSLP    -0.570000       15.9994           0
      5860 MEMB     44       POPC     C1       CTL2    -0.800000E-01   12.0110           0
      5861 MEMB     44       POPC     HA       HAL2     0.900000E-01   1.00800           0
      5862 MEMB     44       POPC     HB       HAL2     0.900000E-01   1.00800           0
      5863 MEMB     44       POPC     C2       CTL1     0.170000       12.0110           0
      5864 MEMB     44       POPC     HS       HAL1     0.900000E-01   1.00800           0
      5865 MEMB     44       POPC     O21      OSL     -0.490000       15.9994           0
      5866 MEMB     44       POPC     C21      CL       0.900000       12.0110           0
      5867 MEMB     44       POPC     O22      OBL     -0.630000       15.9994           0
      5868 MEMB     44       POPC     C22      CTL2    -0.220000       12.0110           0
      5869 MEMB     44       POPC     H2R      HAL2     0.900000E-01   1.00800           0
      5870 MEMB     44       POPC     H2S      HAL2     0.900000E-01   1.00800           0
      5871 MEMB     44       POPC     C3       CTL2     0.800000E-01   12.0110           0
      5872 MEMB     44       POPC     HX       HAL2     0.900000E-01   1.00800           0
      5873 MEMB     44       POPC     HY       HAL2     0.900000E-01   1.00800           0
      5874 MEMB     44       POPC     O31      OSL     -0.490000       15.9994           0
      5875 MEMB     44       POPC     C31      CL       0.900000       12.0110           0
      5876 MEMB     44       POPC     O32      OBL     -0.630000       15.9994           0
      5877 MEMB     44       POPC     C32      CTL2    -0.220000       12.0110           0
      5878 MEMB     44       POPC     H2X      HAL2     0.900000E-01   1.00800           0
      5879 MEMB     44       POPC     H2Y      HAL2     0.900000E-01   1.00800           0
      5880 MEMB     44       POPC     C23      CTL2    -0.180000       12.0110           0
      5881 MEMB     44       POPC     H3R      HAL2     0.900000E-01   1.00800           0
      5882 MEMB     44       POPC     H3S      HAL2     0.900000E-01   1.00800           0
      5883 MEMB     44       POPC     C24      CTL2    -0.180000       12.0110           0
      5884 MEMB     44       POPC     H4R      HAL2     0.900000E-01   1.00800           0
      5885 MEMB     44       POPC     H4S      HAL2     0.900000E-01   1.00800           0
      5886 MEMB     44       POPC     C25      CTL2    -0.180000       12.0110           0
      5887 MEMB     44       POPC     H5R      HAL2     0.900000E-01   1.00800           0
      5888 MEMB     44       POPC     H5S      HAL2     0.900000E-01   1.00800           0
      5889 MEMB     44       POPC     C26      CTL2    -0.180000       12.0110           0
      5890 MEMB     44       POPC     H6R      HAL2     0.900000E-01   1.00800           0
      5891 MEMB     44       POPC     H6S      HAL2     0.900000E-01   1.00800           0
      5892 MEMB     44       POPC     C27      CTL2    -0.180000       12.0110           0
      5893 MEMB     44       POPC     H7R      HAL2     0.900000E-01   1.00800           0
      5894 MEMB     44       POPC     H7S      HAL2     0.900000E-01   1.00800           0
      5895 MEMB     44       POPC     C28      CTL2    -0.180000       12.0110           0
      5896 MEMB     44       POPC     H8R      HAL2     0.900000E-01   1.00800           0
      5897 MEMB     44       POPC     H8S      HAL2     0.900000E-01   1.00800           0
      5898 MEMB     44       POPC     C29      CEL1    -0.150000       12.0110           0
      5899 MEMB     44       POPC     H91      HEL1     0.150000       1.00800           0
      5900 MEMB     44       POPC     C210     CEL1    -0.150000       12.0110           0
      5901 MEMB     44       POPC     H101     HEL1     0.150000       1.00800           0
      5902 MEMB     44       POPC     C211     CTL2    -0.180000       12.0110           0
      5903 MEMB     44       POPC     H11R     HAL2     0.900000E-01   1.00800           0
      5904 MEMB     44       POPC     H11S     HAL2     0.900000E-01   1.00800           0
      5905 MEMB     44       POPC     C212     CTL2    -0.180000       12.0110           0
      5906 MEMB     44       POPC     H12R     HAL2     0.900000E-01   1.00800           0
      5907 MEMB     44       POPC     H12S     HAL2     0.900000E-01   1.00800           0
      5908 MEMB     44       POPC     C213     CTL2    -0.180000       12.0110           0
      5909 MEMB     44       POPC     H13R     HAL2     0.900000E-01   1.00800           0
      5910 MEMB     44       POPC     H13S     HAL2     0.900000E-01   1.00800           0
      5911 MEMB     44       POPC     C214     CTL2    -0.180000       12.0110           0
      5912 MEMB     44       POPC     H14R     HAL2     0.900000E-01   1.00800           0
      5913 MEMB     44       POPC     H14S     HAL2     0.900000E-01   1.00800           0
      5914 MEMB     44       POPC     C215     CTL2    -0.180000       12.0110           0
      5915 MEMB     44       POPC     H15R     HAL2     0.900000E-01   1.00800           0
      5916 MEMB     44       POPC     H15S     HAL2     0.900000E-01   1.00800           0
      5917 MEMB     44       POPC     C216     CTL2    -0.180000       12.0110           0
      5918 MEMB     44       POPC     H16R     HAL2     0.900000E-01   1.00800           0
      5919 MEMB     44       POPC     H16S     HAL2     0.900000E-01   1.00800           0
      5920 MEMB     44       POPC     C217     CTL2    -0.180000       12.0110           0
      5921 MEMB     44       POPC     H17R     HAL2     0.900000E-01   1.00800           0
      5922 MEMB     44       POPC     H17S     HAL2     0.900000E-01   1.00800           0
      5923 MEMB     44       POPC     C218     CTL3    -0.270000       12.0110           0
      5924 MEMB     44       POPC     H18R     HAL3     0.900000E-01   1.00800           0
      5925 MEMB     44       POPC     H18S     HAL3     0.900000E-01   1.00800           0
      5926 MEMB     44       POPC     H18T     HAL3     0.900000E-01   1.00800           0
      5927 MEMB     44       POPC     C33      CTL2    -0.180000       12.0110           0
      5928 MEMB     44       POPC     H3X      HAL2     0.900000E-01   1.00800           0
      5929 MEMB     44       POPC     H3Y      HAL2     0.900000E-01   1.00800           0
      5930 MEMB     44       POPC     C34      CTL2    -0.180000       12.0110           0
      5931 MEMB     44       POPC     H4X      HAL2     0.900000E-01   1.00800           0
      5932 MEMB     44       POPC     H4Y      HAL2     0.900000E-01   1.00800           0
      5933 MEMB     44       POPC     C35      CTL2    -0.180000       12.0110           0
      5934 MEMB     44       POPC     H5X      HAL2     0.900000E-01   1.00800           0
      5935 MEMB     44       POPC     H5Y      HAL2     0.900000E-01   1.00800           0
      5936 MEMB     44       POPC     C36      CTL2    -0.180000       12.0110           0
      5937 MEMB     44       POPC     H6X      HAL2     0.900000E-01   1.00800           0
      5938 MEMB     44       POPC     H6Y      HAL2     0.900000E-01   1.00800           0
      5939 MEMB     44       POPC     C37      CTL2    -0.180000       12.0110           0
      5940 MEMB     44       POPC     H7X      HAL2     0.900000E-01   1.00800           0
      5941 MEMB     44       POPC     H7Y      HAL2     0.900000E-01   1.00800           0
      5942 MEMB     44       POPC     C38      CTL2    -0.180000       12.0110           0
      5943 MEMB     44       POPC     H8X      HAL2     0.900000E-01   1.00800           0
      5944 MEMB     44       POPC     H8Y      HAL2     0.900000E-01   1.00800           0
      5945 MEMB     44       POPC     C39      CTL2    -0.180000       12.0110           0
      5946 MEMB     44       POPC     H9X      HAL2     0.900000E-01   1.00800           0
      5947 MEMB     44       POPC     H9Y      HAL2     0.900000E-01   1.00800           0
      5948 MEMB     44       POPC     C310     CTL2    -0.180000       12.0110           0
      5949 MEMB     44       POPC     H10X     HAL2     0.900000E-01   1.00800           0
      5950 MEMB     44       POPC     H10Y     HAL2     0.900000E-01   1.00800           0
      5951 MEMB     44       POPC     C311     CTL2    -0.180000       12.0110           0
      5952 MEMB     44       POPC     H11X     HAL2     0.900000E-01   1.00800           0
      5953 MEMB     44       POPC     H11Y     HAL2     0.900000E-01   1.00800           0
      5954 MEMB     44       POPC     C312     CTL2    -0.180000       12.0110           0
      5955 MEMB     44       POPC     H12X     HAL2     0.900000E-01   1.00800           0
      5956 MEMB     44       POPC     H12Y     HAL2     0.900000E-01   1.00800           0
      5957 MEMB     44       POPC     C313     CTL2    -0.180000       12.0110           0
      5958 MEMB     44       POPC     H13X     HAL2     0.900000E-01   1.00800           0
      5959 MEMB     44       POPC     H13Y     HAL2     0.900000E-01   1.00800           0
      5960 MEMB     44       POPC     C314     CTL2    -0.180000       12.0110           0
      5961 MEMB     44       POPC     H14X     HAL2     0.900000E-01   1.00800           0
      5962 MEMB     44       POPC     H14Y     HAL2     0.900000E-01   1.00800           0
      5963 MEMB     44       POPC     C315     CTL2    -0.180000       12.0110           0
      5964 MEMB     44       POPC     H15X     HAL2     0.900000E-01   1.00800           0
      5965 MEMB     44       POPC     H15Y     HAL2     0.900000E-01   1.00800           0
      5966 MEMB     44       POPC     C316     CTL3    -0.270000       12.0110           0
      5967 MEMB     44       POPC     H16X     HAL3     0.900000E-01   1.00800           0
      5968 MEMB     44       POPC     H16Y     HAL3     0.900000E-01   1.00800           0
      5969 MEMB     44       POPC     H16Z     HAL3     0.900000E-01   1.00800           0
      5970 MEMB     45       POPC     N        NTL     -0.600000       14.0070           0
      5971 MEMB     45       POPC     C12      CTL2    -0.100000       12.0110           0
      5972 MEMB     45       POPC     H12A     HL       0.250000       1.00800           0
      5973 MEMB     45       POPC     H12B     HL       0.250000       1.00800           0
      5974 MEMB     45       POPC     C13      CTL5    -0.350000       12.0110           0
      5975 MEMB     45       POPC     H13A     HL       0.250000       1.00800           0
      5976 MEMB     45       POPC     H13B     HL       0.250000       1.00800           0
      5977 MEMB     45       POPC     H13C     HL       0.250000       1.00800           0
      5978 MEMB     45       POPC     C14      CTL5    -0.350000       12.0110           0
      5979 MEMB     45       POPC     H14A     HL       0.250000       1.00800           0
      5980 MEMB     45       POPC     H14B     HL       0.250000       1.00800           0
      5981 MEMB     45       POPC     H14C     HL       0.250000       1.00800           0
      5982 MEMB     45       POPC     C15      CTL5    -0.350000       12.0110           0
      5983 MEMB     45       POPC     H15A     HL       0.250000       1.00800           0
      5984 MEMB     45       POPC     H15B     HL       0.250000       1.00800           0
      5985 MEMB     45       POPC     H15C     HL       0.250000       1.00800           0
      5986 MEMB     45       POPC     C11      CTL2    -0.800000E-01   12.0110           0
      5987 MEMB     45       POPC     H11A     HAL2     0.900000E-01   1.00800           0
      5988 MEMB     45       POPC     H11B     HAL2     0.900000E-01   1.00800           0
      5989 MEMB     45       POPC     P        PL       1.500000       30.9740           0
      5990 MEMB     45       POPC     O13      O2L     -0.780000       15.9994           0
      5991 MEMB     45       POPC     O14      O2L     -0.780000       15.9994           0
      5992 MEMB     45       POPC     O12      OSLP    -0.570000       15.9994           0
      5993 MEMB     45       POPC     O11      OSLP    -0.570000       15.9994           0
      5994 MEMB     45       POPC     C1       CTL2    -0.800000E-01   12.0110           0
      5995 MEMB     45       POPC     HA       HAL2     0.900000E-01   1.00800           0
      5996 MEMB     45       POPC     HB       HAL2     0.900000E-01   1.00800           0
      5997 MEMB     45       POPC     C2       CTL1     0.170000       12.0110           0
      5998 MEMB     45       POPC     HS       HAL1     0.900000E-01   1.00800           0
      5999 MEMB     45       POPC     O21      OSL     -0.490000       15.9994           0
      6000 MEMB     45       POPC     C21      CL       0.900000       12.0110           0
      6001 MEMB     45       POPC     O22      OBL     -0.630000       15.9994           0
      6002 MEMB     45       POPC     C22      CTL2    -0.220000       12.0110           0
      6003 MEMB     45       POPC     H2R      HAL2     0.900000E-01   1.00800           0
      6004 MEMB     45       POPC     H2S      HAL2     0.900000E-01   1.00800           0
      6005 MEMB     45       POPC     C3       CTL2     0.800000E-01   12.0110           0
      6006 MEMB     45       POPC     HX       HAL2     0.900000E-01   1.00800           0
      6007 MEMB     45       POPC     HY       HAL2     0.900000E-01   1.00800           0
      6008 MEMB     45       POPC     O31      OSL     -0.490000       15.9994           0
      6009 MEMB     45       POPC     C31      CL       0.900000       12.0110           0
      6010 MEMB     45       POPC     O32      OBL     -0.630000       15.9994           0
      6011 MEMB     45       POPC     C32      CTL2    -0.220000       12.0110           0
      6012 MEMB     45       POPC     H2X      HAL2     0.900000E-01   1.00800           0
      6013 MEMB     45       POPC     H2Y      HAL2     0.900000E-01   1.00800           0
      6014 MEMB     45       POPC     C23      CTL2    -0.180000       12.0110           0
      6015 MEMB     45       POPC     H3R      HAL2     0.900000E-01   1.00800           0
      6016 MEMB     45       POPC     H3S      HAL2     0.900000E-01   1.00800           0
      6017 MEMB     45       POPC     C24      CTL2    -0.180000       12.0110           0
      6018 MEMB     45       POPC     H4R      HAL2     0.900000E-01   1.00800           0
      6019 MEMB     45       POPC     H4S      HAL2     0.900000E-01   1.00800           0
      6020 MEMB     45       POPC     C25      CTL2    -0.180000       12.0110           0
      6021 MEMB     45       POPC     H5R      HAL2     0.900000E-01   1.00800           0
      6022 MEMB     45       POPC     H5S      HAL2     0.900000E-01   1.00800           0
      6023 MEMB     45       POPC     C26      CTL2    -0.180000       12.0110           0
      6024 MEMB     45       POPC     H6R      HAL2     0.900000E-01   1.00800           0
      6025 MEMB     45       POPC     H6S      HAL2     0.900000E-01   1.00800           0
      6026 MEMB     45       POPC     C27      CTL2    -0.180000       12.0110           0
      6027 MEMB     45       POPC     H7R      HAL2     0.900000E-01   1.00800           0
      6028 MEMB     45       POPC     H7S      HAL2     0.900000E-01   1.00800           0
      6029 MEMB     45       POPC     C28      CTL2    -0.180000       12.0110           0
      6030 MEMB     45       POPC     H8R      HAL2     0.900000E-01   1.00800           0
      6031 MEMB     45       POPC     H8S      HAL2     0.900000E-01   1.00800           0
      6032 MEMB     45       POPC     C29      CEL1    -0.150000       12.0110           0
      6033 MEMB     45       POPC     H91      HEL1     0.150000       1.00800           0
      6034 MEMB     45       POPC     C210     CEL1    -0.150000       12.0110           0
      6035 MEMB     45       POPC     H101     HEL1     0.150000       1.00800           0
      6036 MEMB     45       POPC     C211     CTL2    -0.180000       12.0110           0
      6037 MEMB     45       POPC     H11R     HAL2     0.900000E-01   1.00800           0
      6038 MEMB     45       POPC     H11S     HAL2     0.900000E-01   1.00800           0
      6039 MEMB     45       POPC     C212     CTL2    -0.180000       12.0110           0
      6040 MEMB     45       POPC     H12R     HAL2     0.900000E-01   1.00800           0
      6041 MEMB     45       POPC     H12S     HAL2     0.900000E-01   1.00800           0
      6042 MEMB     45       POPC     C213     CTL2    -0.180000       12.0110           0
      6043 MEMB     45       POPC     H13R     HAL2     0.900000E-01   1.00800           0
      6044 MEMB     45       POPC     H13S     HAL2     0.900000E-01   1.00800           0
      6045 MEMB     45       POPC     C214     CTL2    -0.180000       12.0110           0
      6046 MEMB     45       POPC     H14R     HAL2     0.900000E-01   1.00800           0
      6047 MEMB     45       POPC     H14S     HAL2     0.900000E-01   1.00800           0
      6048 MEMB     45       POPC     C215     CTL2    -0.180000       12.0110           0
      6049 MEMB     45       POPC     H15R     HAL2     0.900000E-01   1.00800           0
      6050 MEMB     45       POPC     H15S     HAL2     0.900000E-01   1.00800           0
      6051 MEMB     45       POPC     C216     CTL2    -0.180000       12.0110           0
      6052 MEMB     45       POPC     H16R     HAL2     0.900000E-01   1.00800           0
      6053 MEMB     45       POPC     H16S     HAL2     0.900000E-01   1.00800           0
      6054 MEMB     45       POPC     C217     CTL2    -0.180000       12.0110           0
      6055 MEMB     45       POPC     H17R     HAL2     0.900000E-01   1.00800           0
      6056 MEMB     45       POPC     H17S     HAL2     0.900000E-01   1.00800           0
      6057 MEMB     45       POPC     C218     CTL3    -0.270000       12.0110           0
      6058 MEMB     45       POPC     H18R     HAL3     0.900000E-01   1.00800           0
      6059 MEMB     45       POPC     H18S     HAL3     0.900000E-01   1.00800           0
      6060 MEMB     45       POPC     H18T     HAL3     0.900000E-01   1.00800           0
      6061 MEMB     45       POPC     C33      CTL2    -0.180000       12.0110           0
      6062 MEMB     45       POPC     H3X      HAL2     0.900000E-01   1.00800           0
      6063 MEMB     45       POPC     H3Y      HAL2     0.900000E-01   1.00800           0
      6064 MEMB     45       POPC     C34      CTL2    -0.180000       12.0110           0
      6065 MEMB     45       POPC     H4X      HAL2     0.900000E-01   1.00800           0
      6066 MEMB     45       POPC     H4Y      HAL2     0.900000E-01   1.00800           0
      6067 MEMB     45       POPC     C35      CTL2    -0.180000       12.0110           0
      6068 MEMB     45       POPC     H5X      HAL2     0.900000E-01   1.00800           0
      6069 MEMB     45       POPC     H5Y      HAL2     0.900000E-01   1.00800           0
      6070 MEMB     45       POPC     C36      CTL2    -0.180000       12.0110           0
      6071 MEMB     45       POPC     H6X      HAL2     0.900000E-01   1.00800           0
      6072 MEMB     45       POPC     H6Y      HAL2     0.900000E-01   1.00800           0
      6073 MEMB     45       POPC     C37      CTL2    -0.180000       12.0110           0
      6074 MEMB     45       POPC     H7X      HAL2     0.900000E-01   1.00800           0
      6075 MEMB     45       POPC     H7Y      HAL2     0.900000E-01   1.00800           0
      6076 MEMB     45       POPC     C38      CTL2    -0.180000       12.0110           0
      6077 MEMB     45       POPC     H8X      HAL2     0.900000E-01   1.00800           0
      6078 MEMB     45       POPC     H8Y      HAL2     0.900000E-01   1.00800           0
      6079 MEMB     45       POPC     C39      CTL2    -0.180000       12.0110           0
      6080 MEMB     45       POPC     H9X      HAL2     0.900000E-01   1.00800           0
      6081 MEMB     45       POPC     H9Y      HAL2     0.900000E-01   1.00800           0
      6082 MEMB     45       POPC     C310     CTL2    -0.180000       12.0110           0
      6083 MEMB     45       POPC     H10X     HAL2     0.900000E-01   1.00800           0
      6084 MEMB     45       POPC     H10Y     HAL2     0.900000E-01   1.00800           0
      6085 MEMB     45       POPC     C311     CTL2    -0.180000       12.0110           0
      6086 MEMB     45       POPC     H11X     HAL2     0.900000E-01   1.00800           0
      6087 MEMB     45       POPC     H11Y     HAL2     0.900000E-01   1.00800           0
      6088 MEMB     45       POPC     C312     CTL2    -0.180000       12.0110           0
      6089 MEMB     45       POPC     H12X     HAL2     0.900000E-01   1.00800           0
      6090 MEMB     45       POPC     H12Y     HAL2     0.900000E-01   1.00800           0
      6091 MEMB     45       POPC     C313     CTL2    -0.180000       12.0110           0
      6092 MEMB     45       POPC     H13X     HAL2     0.900000E-01   1.00800           0
      6093 MEMB     45       POPC     H13Y     HAL2     0.900000E-01   1.00800           0
      6094 MEMB     45       POPC     C314     CTL2    -0.180000       12.0110           0
      6095 MEMB     45       POPC     H14X     HAL2     0.900000E-01   1.00800           0
      6096 MEMB     45       POPC     H14Y     HAL2     0.900000E-01   1.00800           0
      6097 MEMB     45       POPC     C315     CTL2    -0.180000       12.0110           0
      6098 MEMB     45       POPC     H15X     HAL2     0.900000E-01   1.00800           0
      6099 MEMB     45       POPC     H15Y     HAL2     0.900000E-01   1.00800           0
      6100 MEMB     45       POPC     C316     CTL3    -0.270000       12.0110           0
      6101 MEMB     45       POPC     H16X     HAL3     0.900000E-01   1.00800           0
      6102 MEMB     45       POPC     H16Y     HAL3     0.900000E-01   1.00800           0
      6103 MEMB     45       POPC     H16Z     HAL3     0.900000E-01   1.00800           0
      6104 MEMB     46       POPS     N        NH3L    -0.300000       14.0070           0
      6105 MEMB     46       POPS     HN1      HCL      0.330000       1.00800           0
      6106 MEMB     46       POPS     HN2      HCL      0.330000       1.00800           0
      6107 MEMB     46       POPS     HN3      HCL      0.330000       1.00800           0
      6108 MEMB     46       POPS     C12      CTL1     0.210000       12.0110           0
      6109 MEMB     46       POPS     H12A     HBL      0.100000       1.00800           0
      6110 MEMB     46       POPS     C13      CCL      0.340000       12.0110           0
      6111 MEMB     46       POPS     O13A     OCL     -0.670000       15.9994           0
      6112 MEMB     46       POPS     O13B     OCL     -0.670000       15.9994           0
      6113 MEMB     46       POPS     C11      CTL2    -0.800000E-01   12.0110           0
      6114 MEMB     46       POPS     H11A     HAL2     0.900000E-01   1.00800           0
      6115 MEMB     46       POPS     H11B     HAL2     0.900000E-01   1.00800           0
      6116 MEMB     46       POPS     P        PL       1.500000       30.9740           0
      6117 MEMB     46       POPS     O13      O2L     -0.780000       15.9994           0
      6118 MEMB     46       POPS     O14      O2L     -0.780000       15.9994           0
      6119 MEMB     46       POPS     O12      OSLP    -0.570000       15.9994           0
      6120 MEMB     46       POPS     O11      OSLP    -0.570000       15.9994           0
      6121 MEMB     46       POPS     C1       CTL2    -0.800000E-01   12.0110           0
      6122 MEMB     46       POPS     HA       HAL2     0.900000E-01   1.00800           0
      6123 MEMB     46       POPS     HB       HAL2     0.900000E-01   1.00800           0
      6124 MEMB     46       POPS     C2       CTL1     0.170000       12.0110           0
      6125 MEMB     46       POPS     HS       HAL1     0.900000E-01   1.00800           0
      6126 MEMB     46       POPS     O21      OSL     -0.490000       15.9994           0
      6127 MEMB     46       POPS     C21      CL       0.900000       12.0110           0
      6128 MEMB     46       POPS     O22      OBL     -0.630000       15.9994           0
      6129 MEMB     46       POPS     C22      CTL2    -0.220000       12.0110           0
      6130 MEMB     46       POPS     H2R      HAL2     0.900000E-01   1.00800           0
      6131 MEMB     46       POPS     H2S      HAL2     0.900000E-01   1.00800           0
      6132 MEMB     46       POPS     C3       CTL2     0.800000E-01   12.0110           0
      6133 MEMB     46       POPS     HX       HAL2     0.900000E-01   1.00800           0
      6134 MEMB     46       POPS     HY       HAL2     0.900000E-01   1.00800           0
      6135 MEMB     46       POPS     O31      OSL     -0.490000       15.9994           0
      6136 MEMB     46       POPS     C31      CL       0.900000       12.0110           0
      6137 MEMB     46       POPS     O32      OBL     -0.630000       15.9994           0
      6138 MEMB     46       POPS     C32      CTL2    -0.220000       12.0110           0
      6139 MEMB     46       POPS     H2X      HAL2     0.900000E-01   1.00800           0
      6140 MEMB     46       POPS     H2Y      HAL2     0.900000E-01   1.00800           0
      6141 MEMB     46       POPS     C23      CTL2    -0.180000       12.0110           0
      6142 MEMB     46       POPS     H3R      HAL2     0.900000E-01   1.00800           0
      6143 MEMB     46       POPS     H3S      HAL2     0.900000E-01   1.00800           0
      6144 MEMB     46       POPS     C24      CTL2    -0.180000       12.0110           0
      6145 MEMB     46       POPS     H4R      HAL2     0.900000E-01   1.00800           0
      6146 MEMB     46       POPS     H4S      HAL2     0.900000E-01   1.00800           0
      6147 MEMB     46       POPS     C25      CTL2    -0.180000       12.0110           0
      6148 MEMB     46       POPS     H5R      HAL2     0.900000E-01   1.00800           0
      6149 MEMB     46       POPS     H5S      HAL2     0.900000E-01   1.00800           0
      6150 MEMB     46       POPS     C26      CTL2    -0.180000       12.0110           0
      6151 MEMB     46       POPS     H6R      HAL2     0.900000E-01   1.00800           0
      6152 MEMB     46       POPS     H6S      HAL2     0.900000E-01   1.00800           0
      6153 MEMB     46       POPS     C27      CTL2    -0.180000       12.0110           0
      6154 MEMB     46       POPS     H7R      HAL2     0.900000E-01   1.00800           0
      6155 MEMB     46       POPS     H7S      HAL2     0.900000E-01   1.00800           0
      6156 MEMB     46       POPS     C28      CTL2    -0.180000       12.0110           0
      6157 MEMB     46       POPS     H8R      HAL2     0.900000E-01   1.00800           0
      6158 MEMB     46       POPS     H8S      HAL2     0.900000E-01   1.00800           0
      6159 MEMB     46       POPS     C29      CEL1    -0.150000       12.0110           0
      6160 MEMB     46       POPS     H91      HEL1     0.150000       1.00800           0
      6161 MEMB     46       POPS     C210     CEL1    -0.150000       12.0110           0
      6162 MEMB     46       POPS     H101     HEL1     0.150000       1.00800           0
      6163 MEMB     46       POPS     C211     CTL2    -0.180000       12.0110           0
      6164 MEMB     46       POPS     H11R     HAL2     0.900000E-01   1.00800           0
      6165 MEMB     46       POPS     H11S     HAL2     0.900000E-01   1.00800           0
      6166 MEMB     46       POPS     C212     CTL2    -0.180000       12.0110           0
      6167 MEMB     46       POPS     H12R     HAL2     0.900000E-01   1.00800           0
      6168 MEMB     46       POPS     H12S     HAL2     0.900000E-01   1.00800           0
      6169 MEMB     46       POPS     C213     CTL2    -0.180000       12.0110           0
      6170 MEMB     46       POPS     H13R     HAL2     0.900000E-01   1.00800           0
      6171 MEMB     46       POPS     H13S     HAL2     0.900000E-01   1.00800           0
      6172 MEMB     46       POPS     C214     CTL2    -0.180000       12.0110           0
      6173 MEMB     46       POPS     H14R     HAL2     0.900000E-01   1.00800           0
      6174 MEMB     46       POPS     H14S     HAL2     0.900000E-01   1.00800           0
      6175 MEMB     46       POPS     C215     CTL2    -0.180000       12.0110           0
      6176 MEMB     46       POPS     H15R     HAL2     0.900000E-01   1.00800           0
      6177 MEMB     46       POPS     H15S     HAL2     0.900000E-01   1.00800           0
      6178 MEMB     46       POPS     C216     CTL2    -0.180000       12.0110           0
      6179 MEMB     46       POPS     H16R     HAL2     0.900000E-01   1.00800           0
      6180 MEMB     46       POPS     H16S     HAL2     0.900000E-01   1.00800           0
      6181 MEMB     46       POPS     C217     CTL2    -0.180000       12.0110           0
      6182 MEMB     46       POPS     H17R     HAL2     0.900000E-01   1.00800           0
      6183 MEMB     46       POPS     H17S     HAL2     0.900000E-01   1.00800           0
      6184 MEMB     46       POPS     C218     CTL3    -0.270000       12.0110           0
      6185 MEMB     46       POPS     H18R     HAL3     0.900000E-01   1.00800           0
      6186 MEMB     46       POPS     H18S     HAL3     0.900000E-01   1.00800           0
      6187 MEMB     46       POPS     H18T     HAL3     0.900000E-01   1.00800           0
      6188 MEMB     46       POPS     C33      CTL2    -0.180000       12.0110           0
      6189 MEMB     46       POPS     H3X      HAL2     0.900000E-01   1.00800           0
      6190 MEMB     46       POPS     H3Y      HAL2     0.900000E-01   1.00800           0
      6191 MEMB     46       POPS     C34      CTL2    -0.180000       12.0110           0
      6192 MEMB     46       POPS     H4X      HAL2     0.900000E-01   1.00800           0
      6193 MEMB     46       POPS     H4Y      HAL2     0.900000E-01   1.00800           0
      6194 MEMB     46       POPS     C35      CTL2    -0.180000       12.0110           0
      6195 MEMB     46       POPS     H5X      HAL2     0.900000E-01   1.00800           0
      6196 MEMB     46       POPS     H5Y      HAL2     0.900000E-01   1.00800           0
      6197 MEMB     46       POPS     C36      CTL2    -0.180000       12.0110           0
      6198 MEMB     46       POPS     H6X      HAL2     0.900000E-01   1.00800           0
      6199 MEMB     46       POPS     H6Y      HAL2     0.900000E-01   1.00800           0
      6200 MEMB     46       POPS     C37      CTL2    -0.180000       12.0110           0
      6201 MEMB     46       POPS     H7X      HAL2     0.900000E-01   1.00800           0
      6202 MEMB     46       POPS     H7Y      HAL2     0.900000E-01   1.00800           0
      6203 MEMB     46       POPS     C38      CTL2    -0.180000       12.0110           0
      6204 MEMB     46       POPS     H8X      HAL2     0.900000E-01   1.00800           0
      6205 MEMB     46       POPS     H8Y      HAL2     0.900000E-01   1.00800           0
      6206 MEMB     46       POPS     C39      CTL2    -0.180000       12.0110           0
      6207 MEMB     46       POPS     H9X      HAL2     0.900000E-01   1.00800           0
      6208 MEMB     46       POPS     H9Y      HAL2     0.900000E-01   1.00800           0
      6209 MEMB     46       POPS     C310     CTL2    -0.180000       12.0110           0
      6210 MEMB     46       POPS     H10X     HAL2     0.900000E-01   1.00800           0
      6211 MEMB     46       POPS     H10Y     HAL2     0.900000E-01   1.00800           0
      6212 MEMB     46       POPS     C311     CTL2    -0.180000       12.0110           0
      6213 MEMB     46       POPS     H11X     HAL2     0.900000E-01   1.00800           0
      6214 MEMB     46       POPS     H11Y     HAL2     0.900000E-01   1.00800           0
      6215 MEMB     46       POPS     C312     CTL2    -0.180000       12.0110           0
      6216 MEMB     46       POPS     H12X     HAL2     0.900000E-01   1.00800           0
      6217 MEMB     46       POPS     H12Y     HAL2     0.900000E-01   1.00800           0
      6218 MEMB     46       POPS     C313     CTL2    -0.180000       12.0110           0
      6219 MEMB     46       POPS     H13X     HAL2     0.900000E-01   1.00800           0
      6220 MEMB     46       POPS     H13Y     HAL2     0.900000E-01   1.00800           0
      6221 MEMB     46       POPS     C314     CTL2    -0.180000       12.0110           0
      6222 MEMB     46       POPS     H14X     HAL2     0.900000E-01   1.00800           0
      6223 MEMB     46       POPS     H14Y     HAL2     0.900000E-01   1.00800           0
      6224 MEMB     46       POPS     C315     CTL2    -0.180000       12.0110           0
      6225 MEMB     46       POPS     H15X     HAL2     0.900000E-01   1.00800           0
      6226 MEMB     46       POPS     H15Y     HAL2     0.900000E-01   1.00800           0
      6227 MEMB     46       POPS     C316     CTL3    -0.270000       12.0110           0
      6228 MEMB     46       POPS     H16X     HAL3     0.900000E-01   1.00800           0
      6229 MEMB     46       POPS     H16Y     HAL3     0.900000E-01   1.00800           0
      6230 MEMB     46       POPS     H16Z     HAL3     0.900000E-01   1.00800           0
      6231 MEMB     47       POPC     N        NTL     -0.600000       14.0070           0
      6232 MEMB     47       POPC     C12      CTL2    -0.100000       12.0110           0
      6233 MEMB     47       POPC     H12A     HL       0.250000       1.00800           0
      6234 MEMB     47       POPC     H12B     HL       0.250000       1.00800           0
      6235 MEMB     47       POPC     C13      CTL5    -0.350000       12.0110           0
      6236 MEMB     47       POPC     H13A     HL       0.250000       1.00800           0
      6237 MEMB     47       POPC     H13B     HL       0.250000       1.00800           0
      6238 MEMB     47       POPC     H13C     HL       0.250000       1.00800           0
      6239 MEMB     47       POPC     C14      CTL5    -0.350000       12.0110           0
      6240 MEMB     47       POPC     H14A     HL       0.250000       1.00800           0
      6241 MEMB     47       POPC     H14B     HL       0.250000       1.00800           0
      6242 MEMB     47       POPC     H14C     HL       0.250000       1.00800           0
      6243 MEMB     47       POPC     C15      CTL5    -0.350000       12.0110           0
      6244 MEMB     47       POPC     H15A     HL       0.250000       1.00800           0
      6245 MEMB     47       POPC     H15B     HL       0.250000       1.00800           0
      6246 MEMB     47       POPC     H15C     HL       0.250000       1.00800           0
      6247 MEMB     47       POPC     C11      CTL2    -0.800000E-01   12.0110           0
      6248 MEMB     47       POPC     H11A     HAL2     0.900000E-01   1.00800           0
      6249 MEMB     47       POPC     H11B     HAL2     0.900000E-01   1.00800           0
      6250 MEMB     47       POPC     P        PL       1.500000       30.9740           0
      6251 MEMB     47       POPC     O13      O2L     -0.780000       15.9994           0
      6252 MEMB     47       POPC     O14      O2L     -0.780000       15.9994           0
      6253 MEMB     47       POPC     O12      OSLP    -0.570000       15.9994           0
      6254 MEMB     47       POPC     O11      OSLP    -0.570000       15.9994           0
      6255 MEMB     47       POPC     C1       CTL2    -0.800000E-01   12.0110           0
      6256 MEMB     47       POPC     HA       HAL2     0.900000E-01   1.00800           0
      6257 MEMB     47       POPC     HB       HAL2     0.900000E-01   1.00800           0
      6258 MEMB     47       POPC     C2       CTL1     0.170000       12.0110           0
      6259 MEMB     47       POPC     HS       HAL1     0.900000E-01   1.00800           0
      6260 MEMB     47       POPC     O21      OSL     -0.490000       15.9994           0
      6261 MEMB     47       POPC     C21      CL       0.900000       12.0110           0
      6262 MEMB     47       POPC     O22      OBL     -0.630000       15.9994           0
      6263 MEMB     47       POPC     C22      CTL2    -0.220000       12.0110           0
      6264 MEMB     47       POPC     H2R      HAL2     0.900000E-01   1.00800           0
      6265 MEMB     47       POPC     H2S      HAL2     0.900000E-01   1.00800           0
      6266 MEMB     47       POPC     C3       CTL2     0.800000E-01   12.0110           0
      6267 MEMB     47       POPC     HX       HAL2     0.900000E-01   1.00800           0
      6268 MEMB     47       POPC     HY       HAL2     0.900000E-01   1.00800           0
      6269 MEMB     47       POPC     O31      OSL     -0.490000       15.9994           0
      6270 MEMB     47       POPC     C31      CL       0.900000       12.0110           0
      6271 MEMB     47       POPC     O32      OBL     -0.630000       15.9994           0
      6272 MEMB     47       POPC     C32      CTL2    -0.220000       12.0110           0
      6273 MEMB     47       POPC     H2X      HAL2     0.900000E-01   1.00800           0
      6274 MEMB     47       POPC     H2Y      HAL2     0.900000E-01   1.00800           0
      6275 MEMB     47       POPC     C23      CTL2    -0.180000       12.0110           0
      6276 MEMB     47       POPC     H3R      HAL2     0.900000E-01   1.00800           0
      6277 MEMB     47       POPC     H3S      HAL2     0.900000E-01   1.00800           0
      6278 MEMB     47       POPC     C24      CTL2    -0.180000       12.0110           0
      6279 MEMB     47       POPC     H4R      HAL2     0.900000E-01   1.00800           0
      6280 MEMB     47       POPC     H4S      HAL2     0.900000E-01   1.00800           0
      6281 MEMB     47       POPC     C25      CTL2    -0.180000       12.0110           0
      6282 MEMB     47       POPC     H5R      HAL2     0.900000E-01   1.00800           0
      6283 MEMB     47       POPC     H5S      HAL2     0.900000E-01   1.00800           0
      6284 MEMB     47       POPC     C26      CTL2    -0.180000       12.0110           0
      6285 MEMB     47       POPC     H6R      HAL2     0.900000E-01   1.00800           0
      6286 MEMB     47       POPC     H6S      HAL2     0.900000E-01   1.00800           0
      6287 MEMB     47       POPC     C27      CTL2    -0.180000       12.0110           0
      6288 MEMB     47       POPC     H7R      HAL2     0.900000E-01   1.00800           0
      6289 MEMB     47       POPC     H7S      HAL2     0.900000E-01   1.00800           0
      6290 MEMB     47       POPC     C28      CTL2    -0.180000       12.0110           0
      6291 MEMB     47       POPC     H8R      HAL2     0.900000E-01   1.00800           0
      6292 MEMB     47       POPC     H8S      HAL2     0.900000E-01   1.00800           0
      6293 MEMB     47       POPC     C29      CEL1    -0.150000       12.0110           0
      6294 MEMB     47       POPC     H91      HEL1     0.150000       1.00800           0
      6295 MEMB     47       POPC     C210     CEL1    -0.150000       12.0110           0
      6296 MEMB     47       POPC     H101     HEL1     0.150000       1.00800           0
      6297 MEMB     47       POPC     C211     CTL2    -0.180000       12.0110           0
      6298 MEMB     47       POPC     H11R     HAL2     0.900000E-01   1.00800           0
      6299 MEMB     47       POPC     H11S     HAL2     0.900000E-01   1.00800           0
      6300 MEMB     47       POPC     C212     CTL2    -0.180000       12.0110           0
      6301 MEMB     47       POPC     H12R     HAL2     0.900000E-01   1.00800           0
      6302 MEMB     47       POPC     H12S     HAL2     0.900000E-01   1.00800           0
      6303 MEMB     47       POPC     C213     CTL2    -0.180000       12.0110           0
      6304 MEMB     47       POPC     H13R     HAL2     0.900000E-01   1.00800           0
      6305 MEMB     47       POPC     H13S     HAL2     0.900000E-01   1.00800           0
      6306 MEMB     47       POPC     C214     CTL2    -0.180000       12.0110           0
      6307 MEMB     47       POPC     H14R     HAL2     0.900000E-01   1.00800           0
      6308 MEMB     47       POPC     H14S     HAL2     0.900000E-01   1.00800           0
      6309 MEMB     47       POPC     C215     CTL2    -0.180000       12.0110           0
      6310 MEMB     47       POPC     H15R     HAL2     0.900000E-01   1.00800           0
      6311 MEMB     47       POPC     H15S     HAL2     0.900000E-01   1.00800           0
      6312 MEMB     47       POPC     C216     CTL2    -0.180000       12.0110           0
      6313 MEMB     47       POPC     H16R     HAL2     0.900000E-01   1.00800           0
      6314 MEMB     47       POPC     H16S     HAL2     0.900000E-01   1.00800           0
      6315 MEMB     47       POPC     C217     CTL2    -0.180000       12.0110           0
      6316 MEMB     47       POPC     H17R     HAL2     0.900000E-01   1.00800           0
      6317 MEMB     47       POPC     H17S     HAL2     0.900000E-01   1.00800           0
      6318 MEMB     47       POPC     C218     CTL3    -0.270000       12.0110           0
      6319 MEMB     47       POPC     H18R     HAL3     0.900000E-01   1.00800           0
      6320 MEMB     47       POPC     H18S     HAL3     0.900000E-01   1.00800           0
      6321 MEMB     47       POPC     H18T     HAL3     0.900000E-01   1.00800           0
      6322 MEMB     47       POPC     C33      CTL2    -0.180000       12.0110           0
      6323 MEMB     47       POPC     H3X      HAL2     0.900000E-01   1.00800           0
      6324 MEMB     47       POPC     H3Y      HAL2     0.900000E-01   1.00800           0
      6325 MEMB     47       POPC     C34      CTL2    -0.180000       12.0110           0
      6326 MEMB     47       POPC     H4X      HAL2     0.900000E-01   1.00800           0
      6327 MEMB     47       POPC     H4Y      HAL2     0.900000E-01   1.00800           0
      6328 MEMB     47       POPC     C35      CTL2    -0.180000       12.0110           0
      6329 MEMB     47       POPC     H5X      HAL2     0.900000E-01   1.00800           0
      6330 MEMB     47       POPC     H5Y      HAL2     0.900000E-01   1.00800           0
      6331 MEMB     47       POPC     C36      CTL2    -0.180000       12.0110           0
      6332 MEMB     47       POPC     H6X      HAL2     0.900000E-01   1.00800           0
      6333 MEMB     47       POPC     H6Y      HAL2     0.900000E-01   1.00800           0
      6334 MEMB     47       POPC     C37      CTL2    -0.180000       12.0110           0
      6335 MEMB     47       POPC     H7X      HAL2     0.900000E-01   1.00800           0
      6336 MEMB     47       POPC     H7Y      HAL2     0.900000E-01   1.00800           0
      6337 MEMB     47       POPC     C38      CTL2    -0.180000       12.0110           0
      6338 MEMB     47       POPC     H8X      HAL2     0.900000E-01   1.00800           0
      6339 MEMB     47       POPC     H8Y      HAL2     0.900000E-01   1.00800           0
      6340 MEMB     47       POPC     C39      CTL2    -0.180000       12.0110           0
      6341 MEMB     47       POPC     H9X      HAL2     0.900000E-01   1.00800           0
      6342 MEMB     47       POPC     H9Y      HAL2     0.900000E-01   1.00800           0
      6343 MEMB     47       POPC     C310     CTL2    -0.180000       12.0110           0
      6344 MEMB     47       POPC     H10X     HAL2     0.900000E-01   1.00800           0
      6345 MEMB     47       POPC     H10Y     HAL2     0.900000E-01   1.00800           0
      6346 MEMB     47       POPC     C311     CTL2    -0.180000       12.0110           0
      6347 MEMB     47       POPC     H11X     HAL2     0.900000E-01   1.00800           0
      6348 MEMB     47       POPC     H11Y     HAL2     0.900000E-01   1.00800           0
      6349 MEMB     47       POPC     C312     CTL2    -0.180000       12.0110           0
      6350 MEMB     47       POPC     H12X     HAL2     0.900000E-01   1.00800           0
      6351 MEMB     47       POPC     H12Y     HAL2     0.900000E-01   1.00800           0
      6352 MEMB     47       POPC     C313     CTL2    -0.180000       12.0110           0
      6353 MEMB     47       POPC     H13X     HAL2     0.900000E-01   1.00800           0
      6354 MEMB     47       POPC     H13Y     HAL2     0.900000E-01   1.00800           0
      6355 MEMB     47       POPC     C314     CTL2    -0.180000       12.0110           0
      6356 MEMB     47       POPC     H14X     HAL2     0.900000E-01   1.00800           0
      6357 MEMB     47       POPC     H14Y     HAL2     0.900000E-01   1.00800           0
      6358 MEMB     47       POPC     C315     CTL2    -0.180000       12.0110           0
      6359 MEMB     47       POPC     H15X     HAL2     0.900000E-01   1.00800           0
      6360 MEMB     47       POPC     H15Y     HAL2     0.900000E-01   1.00800           0
      6361 MEMB     47       POPC     C316     CTL3    -0.270000       12.0110           0
      6362 MEMB     47       POPC     H16X     HAL3     0.900000E-01   1.00800           0
      6363 MEMB     47       POPC     H16Y     HAL3     0.900000E-01   1.00800           0
      6364 MEMB     47       POPC     H16Z     HAL3     0.900000E-01   1.00800           0
      6365 MEMB     48       POPC     N        NTL     -0.600000       14.0070           0
      6366 MEMB     48       POPC     C12      CTL2    -0.100000       12.0110           0
      6367 MEMB     48       POPC     H12A     HL       0.250000       1.00800           0
      6368 MEMB     48       POPC     H12B     HL       0.250000       1.00800           0
      6369 MEMB     48       POPC     C13      CTL5    -0.350000       12.0110           0
      6370 MEMB     48       POPC     H13A     HL       0.250000       1.00800           0
      6371 MEMB     48       POPC     H13B     HL       0.250000       1.00800           0
      6372 MEMB     48       POPC     H13C     HL       0.250000       1.00800           0
      6373 MEMB     48       POPC     C14      CTL5    -0.350000       12.0110           0
      6374 MEMB     48       POPC     H14A     HL       0.250000       1.00800           0
      6375 MEMB     48       POPC     H14B     HL       0.250000       1.00800           0
      6376 MEMB     48       POPC     H14C     HL       0.250000       1.00800           0
      6377 MEMB     48       POPC     C15      CTL5    -0.350000       12.0110           0
      6378 MEMB     48       POPC     H15A     HL       0.250000       1.00800           0
      6379 MEMB     48       POPC     H15B     HL       0.250000       1.00800           0
      6380 MEMB     48       POPC     H15C     HL       0.250000       1.00800           0
      6381 MEMB     48       POPC     C11      CTL2    -0.800000E-01   12.0110           0
      6382 MEMB     48       POPC     H11A     HAL2     0.900000E-01   1.00800           0
      6383 MEMB     48       POPC     H11B     HAL2     0.900000E-01   1.00800           0
      6384 MEMB     48       POPC     P        PL       1.500000       30.9740           0
      6385 MEMB     48       POPC     O13      O2L     -0.780000       15.9994           0
      6386 MEMB     48       POPC     O14      O2L     -0.780000       15.9994           0
      6387 MEMB     48       POPC     O12      OSLP    -0.570000       15.9994           0
      6388 MEMB     48       POPC     O11      OSLP    -0.570000       15.9994           0
      6389 MEMB     48       POPC     C1       CTL2    -0.800000E-01   12.0110           0
      6390 MEMB     48       POPC     HA       HAL2     0.900000E-01   1.00800           0
      6391 MEMB     48       POPC     HB       HAL2     0.900000E-01   1.00800           0
      6392 MEMB     48       POPC     C2       CTL1     0.170000       12.0110           0
      6393 MEMB     48       POPC     HS       HAL1     0.900000E-01   1.00800           0
      6394 MEMB     48       POPC     O21      OSL     -0.490000       15.9994           0
      6395 MEMB     48       POPC     C21      CL       0.900000       12.0110           0
      6396 MEMB     48       POPC     O22      OBL     -0.630000       15.9994           0
      6397 MEMB     48       POPC     C22      CTL2    -0.220000       12.0110           0
      6398 MEMB     48       POPC     H2R      HAL2     0.900000E-01   1.00800           0
      6399 MEMB     48       POPC     H2S      HAL2     0.900000E-01   1.00800           0
      6400 MEMB     48       POPC     C3       CTL2     0.800000E-01   12.0110           0
      6401 MEMB     48       POPC     HX       HAL2     0.900000E-01   1.00800           0
      6402 MEMB     48       POPC     HY       HAL2     0.900000E-01   1.00800           0
      6403 MEMB     48       POPC     O31      OSL     -0.490000       15.9994           0
      6404 MEMB     48       POPC     C31      CL       0.900000       12.0110           0
      6405 MEMB     48       POPC     O32      OBL     -0.630000       15.9994           0
      6406 MEMB     48       POPC     C32      CTL2    -0.220000       12.0110           0
      6407 MEMB     48       POPC     H2X      HAL2     0.900000E-01   1.00800           0
      6408 MEMB     48       POPC     H2Y      HAL2     0.900000E-01   1.00800           0
      6409 MEMB     48       POPC     C23      CTL2    -0.180000       12.0110           0
      6410 MEMB     48       POPC     H3R      HAL2     0.900000E-01   1.00800           0
      6411 MEMB     48       POPC     H3S      HAL2     0.900000E-01   1.00800           0
      6412 MEMB     48       POPC     C24      CTL2    -0.180000       12.0110           0
      6413 MEMB     48       POPC     H4R      HAL2     0.900000E-01   1.00800           0
      6414 MEMB     48       POPC     H4S      HAL2     0.900000E-01   1.00800           0
      6415 MEMB     48       POPC     C25      CTL2    -0.180000       12.0110           0
      6416 MEMB     48       POPC     H5R      HAL2     0.900000E-01   1.00800           0
      6417 MEMB     48       POPC     H5S      HAL2     0.900000E-01   1.00800           0
      6418 MEMB     48       POPC     C26      CTL2    -0.180000       12.0110           0
      6419 MEMB     48       POPC     H6R      HAL2     0.900000E-01   1.00800           0
      6420 MEMB     48       POPC     H6S      HAL2     0.900000E-01   1.00800           0
      6421 MEMB     48       POPC     C27      CTL2    -0.180000       12.0110           0
      6422 MEMB     48       POPC     H7R      HAL2     0.900000E-01   1.00800           0
      6423 MEMB     48       POPC     H7S      HAL2     0.900000E-01   1.00800           0
      6424 MEMB     48       POPC     C28      CTL2    -0.180000       12.0110           0
      6425 MEMB     48       POPC     H8R      HAL2     0.900000E-01   1.00800           0
      6426 MEMB     48       POPC     H8S      HAL2     0.900000E-01   1.00800           0
      6427 MEMB     48       POPC     C29      CEL1    -0.150000       12.0110           0
      6428 MEMB     48       POPC     H91      HEL1     0.150000       1.00800           0
      6429 MEMB     48       POPC     C210     CEL1    -0.150000       12.0110           0
      6430 MEMB     48       POPC     H101     HEL1     0.150000       1.00800           0
      6431 MEMB     48       POPC     C211     CTL2    -0.180000       12.0110           0
      6432 MEMB     48       POPC     H11R     HAL2     0.900000E-01   1.00800           0
      6433 MEMB     48       POPC     H11S     HAL2     0.900000E-01   1.00800           0
      6434 MEMB     48       POPC     C212     CTL2    -0.180000       12.0110           0
      6435 MEMB     48       POPC     H12R     HAL2     0.900000E-01   1.00800           0
      6436 MEMB     48       POPC     H12S     HAL2     0.900000E-01   1.00800           0
      6437 MEMB     48       POPC     C213     CTL2    -0.180000       12.0110           0
      6438 MEMB     48       POPC     H13R     HAL2     0.900000E-01   1.00800           0
      6439 MEMB     48       POPC     H13S     HAL2     0.900000E-01   1.00800           0
      6440 MEMB     48       POPC     C214     CTL2    -0.180000       12.0110           0
      6441 MEMB     48       POPC     H14R     HAL2     0.900000E-01   1.00800           0
      6442 MEMB     48       POPC     H14S     HAL2     0.900000E-01   1.00800           0
      6443 MEMB     48       POPC     C215     CTL2    -0.180000       12.0110           0
      6444 MEMB     48       POPC     H15R     HAL2     0.900000E-01   1.00800           0
      6445 MEMB     48       POPC     H15S     HAL2     0.900000E-01   1.00800           0
      6446 MEMB     48       POPC     C216     CTL2    -0.180000       12.0110           0
      6447 MEMB     48       POPC     H16R     HAL2     0.900000E-01   1.00800           0
      6448 MEMB     48       POPC     H16S     HAL2     0.900000E-01   1.00800           0
      6449 MEMB     48       POPC     C217     CTL2    -0.180000       12.0110           0
      6450 MEMB     48       POPC     H17R     HAL2     0.900000E-01   1.00800           0
      6451 MEMB     48       POPC     H17S     HAL2     0.900000E-01   1.00800           0
      6452 MEMB     48       POPC     C218     CTL3    -0.270000       12.0110           0
      6453 MEMB     48       POPC     H18R     HAL3     0.900000E-01   1.00800           0
      6454 MEMB     48       POPC     H18S     HAL3     0.900000E-01   1.00800           0
      6455 MEMB     48       POPC     H18T     HAL3     0.900000E-01   1.00800           0
      6456 MEMB     48       POPC     C33      CTL2    -0.180000       12.0110           0
      6457 MEMB     48       POPC     H3X      HAL2     0.900000E-01   1.00800           0
      6458 MEMB     48       POPC     H3Y      HAL2     0.900000E-01   1.00800           0
      6459 MEMB     48       POPC     C34      CTL2    -0.180000       12.0110           0
      6460 MEMB     48       POPC     H4X      HAL2     0.900000E-01   1.00800           0
      6461 MEMB     48       POPC     H4Y      HAL2     0.900000E-01   1.00800           0
      6462 MEMB     48       POPC     C35      CTL2    -0.180000       12.0110           0
      6463 MEMB     48       POPC     H5X      HAL2     0.900000E-01   1.00800           0
      6464 MEMB     48       POPC     H5Y      HAL2     0.900000E-01   1.00800           0
      6465 MEMB     48       POPC     C36      CTL2    -0.180000       12.0110           0
      6466 MEMB     48       POPC     H6X      HAL2     0.900000E-01   1.00800           0
      6467 MEMB     48       POPC     H6Y      HAL2     0.900000E-01   1.00800           0
      6468 MEMB     48       POPC     C37      CTL2    -0.180000       12.0110           0
      6469 MEMB     48       POPC     H7X      HAL2     0.900000E-01   1.00800           0
      6470 MEMB     48       POPC     H7Y      HAL2     0.900000E-01   1.00800           0
      6471 MEMB     48       POPC     C38      CTL2    -0.180000       12.0110           0
      6472 MEMB     48       POPC     H8X      HAL2     0.900000E-01   1.00800           0
      6473 MEMB     48       POPC     H8Y      HAL2     0.900000E-01   1.00800           0
      6474 MEMB     48       POPC     C39      CTL2    -0.180000       12.0110           0
      6475 MEMB     48       POPC     H9X      HAL2     0.900000E-01   1.00800           0
      6476 MEMB     48       POPC     H9Y      HAL2     0.900000E-01   1.00800           0
      6477 MEMB     48       POPC     C310     CTL2    -0.180000       12.0110           0
      6478 MEMB     48       POPC     H10X     HAL2     0.900000E-01   1.00800           0
      6479 MEMB     48       POPC     H10Y     HAL2     0.900000E-01   1.00800           0
      6480 MEMB     48       POPC     C311     CTL2    -0.180000       12.0110           0
      6481 MEMB     48       POPC     H11X     HAL2     0.900000E-01   1.00800           0
      6482 MEMB     48       POPC     H11Y     HAL2     0.900000E-01   1.00800           0
      6483 MEMB     48       POPC     C312     CTL2    -0.180000       12.0110           0
      6484 MEMB     48       POPC     H12X     HAL2     0.900000E-01   1.00800           0
      6485 MEMB     48       POPC     H12Y     HAL2     0.900000E-01   1.00800           0
      6486 MEMB     48       POPC     C313     CTL2    -0.180000       12.0110           0
      6487 MEMB     48       POPC     H13X     HAL2     0.900000E-01   1.00800           0
      6488 MEMB     48       POPC     H13Y     HAL2     0.900000E-01   1.00800           0
      6489 MEMB     48       POPC     C314     CTL2    -0.180000       12.0110           0
      6490 MEMB     48       POPC     H14X     HAL2     0.900000E-01   1.00800           0
      6491 MEMB     48       POPC     H14Y     HAL2     0.900000E-01   1.00800           0
      6492 MEMB     48       POPC     C315     CTL2    -0.180000       12.0110           0
      6493 MEMB     48       POPC     H15X     HAL2     0.900000E-01   1.00800           0
      6494 MEMB     48       POPC     H15Y     HAL2     0.900000E-01   1.00800           0
      6495 MEMB     48       POPC     C316     CTL3    -0.270000       12.0110           0
      6496 MEMB     48       POPC     H16X     HAL3     0.900000E-01   1.00800           0
      6497 MEMB     48       POPC     H16Y     HAL3     0.900000E-01   1.00800           0
      6498 MEMB     48       POPC     H16Z     HAL3     0.900000E-01   1.00800           0
      6499 MEMB     49       POPC     N        NTL     -0.600000       14.0070           0
      6500 MEMB     49       POPC     C12      CTL2    -0.100000       12.0110           0
      6501 MEMB     49       POPC     H12A     HL       0.250000       1.00800           0
      6502 MEMB     49       POPC     H12B     HL       0.250000       1.00800           0
      6503 MEMB     49       POPC     C13      CTL5    -0.350000       12.0110           0
      6504 MEMB     49       POPC     H13A     HL       0.250000       1.00800           0
      6505 MEMB     49       POPC     H13B     HL       0.250000       1.00800           0
      6506 MEMB     49       POPC     H13C     HL       0.250000       1.00800           0
      6507 MEMB     49       POPC     C14      CTL5    -0.350000       12.0110           0
      6508 MEMB     49       POPC     H14A     HL       0.250000       1.00800           0
      6509 MEMB     49       POPC     H14B     HL       0.250000       1.00800           0
      6510 MEMB     49       POPC     H14C     HL       0.250000       1.00800           0
      6511 MEMB     49       POPC     C15      CTL5    -0.350000       12.0110           0
      6512 MEMB     49       POPC     H15A     HL       0.250000       1.00800           0
      6513 MEMB     49       POPC     H15B     HL       0.250000       1.00800           0
      6514 MEMB     49       POPC     H15C     HL       0.250000       1.00800           0
      6515 MEMB     49       POPC     C11      CTL2    -0.800000E-01   12.0110           0
      6516 MEMB     49       POPC     H11A     HAL2     0.900000E-01   1.00800           0
      6517 MEMB     49       POPC     H11B     HAL2     0.900000E-01   1.00800           0
      6518 MEMB     49       POPC     P        PL       1.500000       30.9740           0
      6519 MEMB     49       POPC     O13      O2L     -0.780000       15.9994           0
      6520 MEMB     49       POPC     O14      O2L     -0.780000       15.9994           0
      6521 MEMB     49       POPC     O12      OSLP    -0.570000       15.9994           0
      6522 MEMB     49       POPC     O11      OSLP    -0.570000       15.9994           0
      6523 MEMB     49       POPC     C1       CTL2    -0.800000E-01   12.0110           0
      6524 MEMB     49       POPC     HA       HAL2     0.900000E-01   1.00800           0
      6525 MEMB     49       POPC     HB       HAL2     0.900000E-01   1.00800           0
      6526 MEMB     49       POPC     C2       CTL1     0.170000       12.0110           0
      6527 MEMB     49       POPC     HS       HAL1     0.900000E-01   1.00800           0
      6528 MEMB     49       POPC     O21      OSL     -0.490000       15.9994           0
      6529 MEMB     49       POPC     C21      CL       0.900000       12.0110           0
      6530 MEMB     49       POPC     O22      OBL     -0.630000       15.9994           0
      6531 MEMB     49       POPC     C22      CTL2    -0.220000       12.0110           0
      6532 MEMB     49       POPC     H2R      HAL2     0.900000E-01   1.00800           0
      6533 MEMB     49       POPC     H2S      HAL2     0.900000E-01   1.00800           0
      6534 MEMB     49       POPC     C3       CTL2     0.800000E-01   12.0110           0
      6535 MEMB     49       POPC     HX       HAL2     0.900000E-01   1.00800           0
      6536 MEMB     49       POPC     HY       HAL2     0.900000E-01   1.00800           0
      6537 MEMB     49       POPC     O31      OSL     -0.490000       15.9994           0
      6538 MEMB     49       POPC     C31      CL       0.900000       12.0110           0
      6539 MEMB     49       POPC     O32      OBL     -0.630000       15.9994           0
      6540 MEMB     49       POPC     C32      CTL2    -0.220000       12.0110           0
      6541 MEMB     49       POPC     H2X      HAL2     0.900000E-01   1.00800           0
      6542 MEMB     49       POPC     H2Y      HAL2     0.900000E-01   1.00800           0
      6543 MEMB     49       POPC     C23      CTL2    -0.180000       12.0110           0
      6544 MEMB     49       POPC     H3R      HAL2     0.900000E-01   1.00800           0
      6545 MEMB     49       POPC     H3S      HAL2     0.900000E-01   1.00800           0
      6546 MEMB     49       POPC     C24      CTL2    -0.180000       12.0110           0
      6547 MEMB     49       POPC     H4R      HAL2     0.900000E-01   1.00800           0
      6548 MEMB     49       POPC     H4S      HAL2     0.900000E-01   1.00800           0
      6549 MEMB     49       POPC     C25      CTL2    -0.180000       12.0110           0
      6550 MEMB     49       POPC     H5R      HAL2     0.900000E-01   1.00800           0
      6551 MEMB     49       POPC     H5S      HAL2     0.900000E-01   1.00800           0
      6552 MEMB     49       POPC     C26      CTL2    -0.180000       12.0110           0
      6553 MEMB     49       POPC     H6R      HAL2     0.900000E-01   1.00800           0
      6554 MEMB     49       POPC     H6S      HAL2     0.900000E-01   1.00800           0
      6555 MEMB     49       POPC     C27      CTL2    -0.180000       12.0110           0
      6556 MEMB     49       POPC     H7R      HAL2     0.900000E-01   1.00800           0
      6557 MEMB     49       POPC     H7S      HAL2     0.900000E-01   1.00800           0
      6558 MEMB     49       POPC     C28      CTL2    -0.180000       12.0110           0
      6559 MEMB     49       POPC     H8R      HAL2     0.900000E-01   1.00800           0
      6560 MEMB     49       POPC     H8S      HAL2     0.900000E-01   1.00800           0
      6561 MEMB     49       POPC     C29      CEL1    -0.150000       12.0110           0
      6562 MEMB     49       POPC     H91      HEL1     0.150000       1.00800           0
      6563 MEMB     49       POPC     C210     CEL1    -0.150000       12.0110           0
      6564 MEMB     49       POPC     H101     HEL1     0.150000       1.00800           0
      6565 MEMB     49       POPC     C211     CTL2    -0.180000       12.0110           0
      6566 MEMB     49       POPC     H11R     HAL2     0.900000E-01   1.00800           0
      6567 MEMB     49       POPC     H11S     HAL2     0.900000E-01   1.00800           0
      6568 MEMB     49       POPC     C212     CTL2    -0.180000       12.0110           0
      6569 MEMB     49       POPC     H12R     HAL2     0.900000E-01   1.00800           0
      6570 MEMB     49       POPC     H12S     HAL2     0.900000E-01   1.00800           0
      6571 MEMB     49       POPC     C213     CTL2    -0.180000       12.0110           0
      6572 MEMB     49       POPC     H13R     HAL2     0.900000E-01   1.00800           0
      6573 MEMB     49       POPC     H13S     HAL2     0.900000E-01   1.00800           0
      6574 MEMB     49       POPC     C214     CTL2    -0.180000       12.0110           0
      6575 MEMB     49       POPC     H14R     HAL2     0.900000E-01   1.00800           0
      6576 MEMB     49       POPC     H14S     HAL2     0.900000E-01   1.00800           0
      6577 MEMB     49       POPC     C215     CTL2    -0.180000       12.0110           0
      6578 MEMB     49       POPC     H15R     HAL2     0.900000E-01   1.00800           0
      6579 MEMB     49       POPC     H15S     HAL2     0.900000E-01   1.00800           0
      6580 MEMB     49       POPC     C216     CTL2    -0.180000       12.0110           0
      6581 MEMB     49       POPC     H16R     HAL2     0.900000E-01   1.00800           0
      6582 MEMB     49       POPC     H16S     HAL2     0.900000E-01   1.00800           0
      6583 MEMB     49       POPC     C217     CTL2    -0.180000       12.0110           0
      6584 MEMB     49       POPC     H17R     HAL2     0.900000E-01   1.00800           0
      6585 MEMB     49       POPC     H17S     HAL2     0.900000E-01   1.00800           0
      6586 MEMB     49       POPC     C218     CTL3    -0.270000       12.0110           0
      6587 MEMB     49       POPC     H18R     HAL3     0.900000E-01   1.00800           0
      6588 MEMB     49       POPC     H18S     HAL3     0.900000E-01   1.00800           0
      6589 MEMB     49       POPC     H18T     HAL3     0.900000E-01   1.00800           0
      6590 MEMB     49       POPC     C33      CTL2    -0.180000       12.0110           0
      6591 MEMB     49       POPC     H3X      HAL2     0.900000E-01   1.00800           0
      6592 MEMB     49       POPC     H3Y      HAL2     0.900000E-01   1.00800           0
      6593 MEMB     49       POPC     C34      CTL2    -0.180000       12.0110           0
      6594 MEMB     49       POPC     H4X      HAL2     0.900000E-01   1.00800           0
      6595 MEMB     49       POPC     H4Y      HAL2     0.900000E-01   1.00800           0
      6596 MEMB     49       POPC     C35      CTL2    -0.180000       12.0110           0
      6597 MEMB     49       POPC     H5X      HAL2     0.900000E-01   1.00800           0
      6598 MEMB     49       POPC     H5Y      HAL2     0.900000E-01   1.00800           0
      6599 MEMB     49       POPC     C36      CTL2    -0.180000       12.0110           0
      6600 MEMB     49       POPC     H6X      HAL2     0.900000E-01   1.00800           0
      6601 MEMB     49       POPC     H6Y      HAL2     0.900000E-01   1.00800           0
      6602 MEMB     49       POPC     C37      CTL2    -0.180000       12.0110           0
      6603 MEMB     49       POPC     H7X      HAL2     0.900000E-01   1.00800           0
      6604 MEMB     49       POPC     H7Y      HAL2     0.900000E-01   1.00800           0
      6605 MEMB     49       POPC     C38      CTL2    -0.180000       12.0110           0
      6606 MEMB     49       POPC     H8X      HAL2     0.900000E-01   1.00800           0
      6607 MEMB     49       POPC     H8Y      HAL2     0.900000E-01   1.00800           0
      6608 MEMB     49       POPC     C39      CTL2    -0.180000       12.0110           0
      6609 MEMB     49       POPC     H9X      HAL2     0.900000E-01   1.00800           0
      6610 MEMB     49       POPC     H9Y      HAL2     0.900000E-01   1.00800           0
      6611 MEMB     49       POPC     C310     CTL2    -0.180000       12.0110           0
      6612 MEMB     49       POPC     H10X     HAL2     0.900000E-01   1.00800           0
      6613 MEMB     49       POPC     H10Y     HAL2     0.900000E-01   1.00800           0
      6614 MEMB     49       POPC     C311     CTL2    -0.180000       12.0110           0
      6615 MEMB     49       POPC     H11X     HAL2     0.900000E-01   1.00800           0
      6616 MEMB     49       POPC     H11Y     HAL2     0.900000E-01   1.00800           0
      6617 MEMB     49       POPC     C312     CTL2    -0.180000       12.0110           0
      6618 MEMB     49       POPC     H12X     HAL2     0.900000E-01   1.00800           0
      6619 MEMB     49       POPC     H12Y     HAL2     0.900000E-01   1.00800           0
      6620 MEMB     49       POPC     C313     CTL2    -0.180000       12.0110           0
      6621 MEMB     49       POPC     H13X     HAL2     0.900000E-01   1.00800           0
      6622 MEMB     49       POPC     H13Y     HAL2     0.900000E-01   1.00800           0
      6623 MEMB     49       POPC     C314     CTL2    -0.180000       12.0110           0
      6624 MEMB     49       POPC     H14X     HAL2     0.900000E-01   1.00800           0
      6625 MEMB     49       POPC     H14Y     HAL2     0.900000E-01   1.00800           0
      6626 MEMB     49       POPC     C315     CTL2    -0.180000       12.0110           0
      6627 MEMB     49       POPC     H15X     HAL2     0.900000E-01   1.00800           0
      6628 MEMB     49       POPC     H15Y     HAL2     0.900000E-01   1.00800           0
      6629 MEMB     49       POPC     C316     CTL3    -0.270000       12.0110           0
      6630 MEMB     49       POPC     H16X     HAL3     0.900000E-01   1.00800           0
      6631 MEMB     49       POPC     H16Y     HAL3     0.900000E-01   1.00800           0
      6632 MEMB     49       POPC     H16Z     HAL3     0.900000E-01   1.00800           0
      6633 MEMB     50       POPS     N        NH3L    -0.300000       14.0070           0
      6634 MEMB     50       POPS     HN1      HCL      0.330000       1.00800           0
      6635 MEMB     50       POPS     HN2      HCL      0.330000       1.00800           0
      6636 MEMB     50       POPS     HN3      HCL      0.330000       1.00800           0
      6637 MEMB     50       POPS     C12      CTL1     0.210000       12.0110           0
      6638 MEMB     50       POPS     H12A     HBL      0.100000       1.00800           0
      6639 MEMB     50       POPS     C13      CCL      0.340000       12.0110           0
      6640 MEMB     50       POPS     O13A     OCL     -0.670000       15.9994           0
      6641 MEMB     50       POPS     O13B     OCL     -0.670000       15.9994           0
      6642 MEMB     50       POPS     C11      CTL2    -0.800000E-01   12.0110           0
      6643 MEMB     50       POPS     H11A     HAL2     0.900000E-01   1.00800           0
      6644 MEMB     50       POPS     H11B     HAL2     0.900000E-01   1.00800           0
      6645 MEMB     50       POPS     P        PL       1.500000       30.9740           0
      6646 MEMB     50       POPS     O13      O2L     -0.780000       15.9994           0
      6647 MEMB     50       POPS     O14      O2L     -0.780000       15.9994           0
      6648 MEMB     50       POPS     O12      OSLP    -0.570000       15.9994           0
      6649 MEMB     50       POPS     O11      OSLP    -0.570000       15.9994           0
      6650 MEMB     50       POPS     C1       CTL2    -0.800000E-01   12.0110           0
      6651 MEMB     50       POPS     HA       HAL2     0.900000E-01   1.00800           0
      6652 MEMB     50       POPS     HB       HAL2     0.900000E-01   1.00800           0
      6653 MEMB     50       POPS     C2       CTL1     0.170000       12.0110           0
      6654 MEMB     50       POPS     HS       HAL1     0.900000E-01   1.00800           0
      6655 MEMB     50       POPS     O21      OSL     -0.490000       15.9994           0
      6656 MEMB     50       POPS     C21      CL       0.900000       12.0110           0
      6657 MEMB     50       POPS     O22      OBL     -0.630000       15.9994           0
      6658 MEMB     50       POPS     C22      CTL2    -0.220000       12.0110           0
      6659 MEMB     50       POPS     H2R      HAL2     0.900000E-01   1.00800           0
      6660 MEMB     50       POPS     H2S      HAL2     0.900000E-01   1.00800           0
      6661 MEMB     50       POPS     C3       CTL2     0.800000E-01   12.0110           0
      6662 MEMB     50       POPS     HX       HAL2     0.900000E-01   1.00800           0
      6663 MEMB     50       POPS     HY       HAL2     0.900000E-01   1.00800           0
      6664 MEMB     50       POPS     O31      OSL     -0.490000       15.9994           0
      6665 MEMB     50       POPS     C31      CL       0.900000       12.0110           0
      6666 MEMB     50       POPS     O32      OBL     -0.630000       15.9994           0
      6667 MEMB     50       POPS     C32      CTL2    -0.220000       12.0110           0
      6668 MEMB     50       POPS     H2X      HAL2     0.900000E-01   1.00800           0
      6669 MEMB     50       POPS     H2Y      HAL2     0.900000E-01   1.00800           0
      6670 MEMB     50       POPS     C23      CTL2    -0.180000       12.0110           0
      6671 MEMB     50       POPS     H3R      HAL2     0.900000E-01   1.00800           0
      6672 MEMB     50       POPS     H3S      HAL2     0.900000E-01   1.00800           0
      6673 MEMB     50       POPS     C24      CTL2    -0.180000       12.0110           0
      6674 MEMB     50       POPS     H4R      HAL2     0.900000E-01   1.00800           0
      6675 MEMB     50       POPS     H4S      HAL2     0.900000E-01   1.00800           0
      6676 MEMB     50       POPS     C25      CTL2    -0.180000       12.0110           0
      6677 MEMB     50       POPS     H5R      HAL2     0.900000E-01   1.00800           0
      6678 MEMB     50       POPS     H5S      HAL2     0.900000E-01   1.00800           0
      6679 MEMB     50       POPS     C26      CTL2    -0.180000       12.0110           0
      6680 MEMB     50       POPS     H6R      HAL2     0.900000E-01   1.00800           0
      6681 MEMB     50       POPS     H6S      HAL2     0.900000E-01   1.00800           0
      6682 MEMB     50       POPS     C27      CTL2    -0.180000       12.0110           0
      6683 MEMB     50       POPS     H7R      HAL2     0.900000E-01   1.00800           0
      6684 MEMB     50       POPS     H7S      HAL2     0.900000E-01   1.00800           0
      6685 MEMB     50       POPS     C28      CTL2    -0.180000       12.0110           0
      6686 MEMB     50       POPS     H8R      HAL2     0.900000E-01   1.00800           0
      6687 MEMB     50       POPS     H8S      HAL2     0.900000E-01   1.00800           0
      6688 MEMB     50       POPS     C29      CEL1    -0.150000       12.0110           0
      6689 MEMB     50       POPS     H91      HEL1     0.150000       1.00800           0
      6690 MEMB     50       POPS     C210     CEL1    -0.150000       12.0110           0
      6691 MEMB     50       POPS     H101     HEL1     0.150000       1.00800           0
      6692 MEMB     50       POPS     C211     CTL2    -0.180000       12.0110           0
      6693 MEMB     50       POPS     H11R     HAL2     0.900000E-01   1.00800           0
      6694 MEMB     50       POPS     H11S     HAL2     0.900000E-01   1.00800           0
      6695 MEMB     50       POPS     C212     CTL2    -0.180000       12.0110           0
      6696 MEMB     50       POPS     H12R     HAL2     0.900000E-01   1.00800           0
      6697 MEMB     50       POPS     H12S     HAL2     0.900000E-01   1.00800           0
      6698 MEMB     50       POPS     C213     CTL2    -0.180000       12.0110           0
      6699 MEMB     50       POPS     H13R     HAL2     0.900000E-01   1.00800           0
      6700 MEMB     50       POPS     H13S     HAL2     0.900000E-01   1.00800           0
      6701 MEMB     50       POPS     C214     CTL2    -0.180000       12.0110           0
      6702 MEMB     50       POPS     H14R     HAL2     0.900000E-01   1.00800           0
      6703 MEMB     50       POPS     H14S     HAL2     0.900000E-01   1.00800           0
      6704 MEMB     50       POPS     C215     CTL2    -0.180000       12.0110           0
      6705 MEMB     50       POPS     H15R     HAL2     0.900000E-01   1.00800           0
      6706 MEMB     50       POPS     H15S     HAL2     0.900000E-01   1.00800           0
      6707 MEMB     50       POPS     C216     CTL2    -0.180000       12.0110           0
      6708 MEMB     50       POPS     H16R     HAL2     0.900000E-01   1.00800           0
      6709 MEMB     50       POPS     H16S     HAL2     0.900000E-01   1.00800           0
      6710 MEMB     50       POPS     C217     CTL2    -0.180000       12.0110           0
      6711 MEMB     50       POPS     H17R     HAL2     0.900000E-01   1.00800           0
      6712 MEMB     50       POPS     H17S     HAL2     0.900000E-01   1.00800           0
      6713 MEMB     50       POPS     C218     CTL3    -0.270000       12.0110           0
      6714 MEMB     50       POPS     H18R     HAL3     0.900000E-01   1.00800           0
      6715 MEMB     50       POPS     H18S     HAL3     0.900000E-01   1.00800           0
      6716 MEMB     50       POPS     H18T     HAL3     0.900000E-01   1.00800           0
      6717 MEMB     50       POPS     C33      CTL2    -0.180000       12.0110           0
      6718 MEMB     50       POPS     H3X      HAL2     0.900000E-01   1.00800           0
      6719 MEMB     50       POPS     H3Y      HAL2     0.900000E-01   1.00800           0
      6720 MEMB     50       POPS     C34      CTL2    -0.180000       12.0110           0
      6721 MEMB     50       POPS     H4X      HAL2     0.900000E-01   1.00800           0
      6722 MEMB     50       POPS     H4Y      HAL2     0.900000E-01   1.00800           0
      6723 MEMB     50       POPS     C35      CTL2    -0.180000       12.0110           0
      6724 MEMB     50       POPS     H5X      HAL2     0.900000E-01   1.00800           0
      6725 MEMB     50       POPS     H5Y      HAL2     0.900000E-01   1.00800           0
      6726 MEMB     50       POPS     C36      CTL2    -0.180000       12.0110           0
      6727 MEMB     50       POPS     H6X      HAL2     0.900000E-01   1.00800           0
      6728 MEMB     50       POPS     H6Y      HAL2     0.900000E-01   1.00800           0
      6729 MEMB     50       POPS     C37      CTL2    -0.180000       12.0110           0
      6730 MEMB     50       POPS     H7X      HAL2     0.900000E-01   1.00800           0
      6731 MEMB     50       POPS     H7Y      HAL2     0.900000E-01   1.00800           0
      6732 MEMB     50       POPS     C38      CTL2    -0.180000       12.0110           0
      6733 MEMB     50       POPS     H8X      HAL2     0.900000E-01   1.00800           0
      6734 MEMB     50       POPS     H8Y      HAL2     0.900000E-01   1.00800           0
      6735 MEMB     50       POPS     C39      CTL2    -0.180000       12.0110           0
      6736 MEMB     50       POPS     H9X      HAL2     0.900000E-01   1.00800           0
      6737 MEMB     50       POPS     H9Y      HAL2     0.900000E-01   1.00800           0
      6738 MEMB     50       POPS     C310     CTL2    -0.180000       12.0110           0
      6739 MEMB     50       POPS     H10X     HAL2     0.900000E-01   1.00800           0
      6740 MEMB     50       POPS     H10Y     HAL2     0.900000E-01   1.00800           0
      6741 MEMB     50       POPS     C311     CTL2    -0.180000       12.0110           0
      6742 MEMB     50       POPS     H11X     HAL2     0.900000E-01   1.00800           0
      6743 MEMB     50       POPS     H11Y     HAL2     0.900000E-01   1.00800           0
      6744 MEMB     50       POPS     C312     CTL2    -0.180000       12.0110           0
      6745 MEMB     50       POPS     H12X     HAL2     0.900000E-01   1.00800           0
      6746 MEMB     50       POPS     H12Y     HAL2     0.900000E-01   1.00800           0
      6747 MEMB     50       POPS     C313     CTL2    -0.180000       12.0110           0
      6748 MEMB     50       POPS     H13X     HAL2     0.900000E-01   1.00800           0
      6749 MEMB     50       POPS     H13Y     HAL2     0.900000E-01   1.00800           0
      6750 MEMB     50       POPS     C314     CTL2    -0.180000       12.0110           0
      6751 MEMB     50       POPS     H14X     HAL2     0.900000E-01   1.00800           0
      6752 MEMB     50       POPS     H14Y     HAL2     0.900000E-01   1.00800           0
      6753 MEMB     50       POPS     C315     CTL2    -0.180000       12.0110           0
      6754 MEMB     50       POPS     H15X     HAL2     0.900000E-01   1.00800           0
      6755 MEMB     50       POPS     H15Y     HAL2     0.900000E-01   1.00800           0
      6756 MEMB     50       POPS     C316     CTL3    -0.270000       12.0110           0
      6757 MEMB     50       POPS     H16X     HAL3     0.900000E-01   1.00800           0
      6758 MEMB     50       POPS     H16Y     HAL3     0.900000E-01   1.00800           0
      6759 MEMB     50       POPS     H16Z     HAL3     0.900000E-01   1.00800           0
      6760 MEMB     51       POPC     N        NTL     -0.600000       14.0070           0
      6761 MEMB     51       POPC     C12      CTL2    -0.100000       12.0110           0
      6762 MEMB     51       POPC     H12A     HL       0.250000       1.00800           0
      6763 MEMB     51       POPC     H12B     HL       0.250000       1.00800           0
      6764 MEMB     51       POPC     C13      CTL5    -0.350000       12.0110           0
      6765 MEMB     51       POPC     H13A     HL       0.250000       1.00800           0
      6766 MEMB     51       POPC     H13B     HL       0.250000       1.00800           0
      6767 MEMB     51       POPC     H13C     HL       0.250000       1.00800           0
      6768 MEMB     51       POPC     C14      CTL5    -0.350000       12.0110           0
      6769 MEMB     51       POPC     H14A     HL       0.250000       1.00800           0
      6770 MEMB     51       POPC     H14B     HL       0.250000       1.00800           0
      6771 MEMB     51       POPC     H14C     HL       0.250000       1.00800           0
      6772 MEMB     51       POPC     C15      CTL5    -0.350000       12.0110           0
      6773 MEMB     51       POPC     H15A     HL       0.250000       1.00800           0
      6774 MEMB     51       POPC     H15B     HL       0.250000       1.00800           0
      6775 MEMB     51       POPC     H15C     HL       0.250000       1.00800           0
      6776 MEMB     51       POPC     C11      CTL2    -0.800000E-01   12.0110           0
      6777 MEMB     51       POPC     H11A     HAL2     0.900000E-01   1.00800           0
      6778 MEMB     51       POPC     H11B     HAL2     0.900000E-01   1.00800           0
      6779 MEMB     51       POPC     P        PL       1.500000       30.9740           0
      6780 MEMB     51       POPC     O13      O2L     -0.780000       15.9994           0
      6781 MEMB     51       POPC     O14      O2L     -0.780000       15.9994           0
      6782 MEMB     51       POPC     O12      OSLP    -0.570000       15.9994           0
      6783 MEMB     51       POPC     O11      OSLP    -0.570000       15.9994           0
      6784 MEMB     51       POPC     C1       CTL2    -0.800000E-01   12.0110           0
      6785 MEMB     51       POPC     HA       HAL2     0.900000E-01   1.00800           0
      6786 MEMB     51       POPC     HB       HAL2     0.900000E-01   1.00800           0
      6787 MEMB     51       POPC     C2       CTL1     0.170000       12.0110           0
      6788 MEMB     51       POPC     HS       HAL1     0.900000E-01   1.00800           0
      6789 MEMB     51       POPC     O21      OSL     -0.490000       15.9994           0
      6790 MEMB     51       POPC     C21      CL       0.900000       12.0110           0
      6791 MEMB     51       POPC     O22      OBL     -0.630000       15.9994           0
      6792 MEMB     51       POPC     C22      CTL2    -0.220000       12.0110           0
      6793 MEMB     51       POPC     H2R      HAL2     0.900000E-01   1.00800           0
      6794 MEMB     51       POPC     H2S      HAL2     0.900000E-01   1.00800           0
      6795 MEMB     51       POPC     C3       CTL2     0.800000E-01   12.0110           0
      6796 MEMB     51       POPC     HX       HAL2     0.900000E-01   1.00800           0
      6797 MEMB     51       POPC     HY       HAL2     0.900000E-01   1.00800           0
      6798 MEMB     51       POPC     O31      OSL     -0.490000       15.9994           0
      6799 MEMB     51       POPC     C31      CL       0.900000       12.0110           0
      6800 MEMB     51       POPC     O32      OBL     -0.630000       15.9994           0
      6801 MEMB     51       POPC     C32      CTL2    -0.220000       12.0110           0
      6802 MEMB     51       POPC     H2X      HAL2     0.900000E-01   1.00800           0
      6803 MEMB     51       POPC     H2Y      HAL2     0.900000E-01   1.00800           0
      6804 MEMB     51       POPC     C23      CTL2    -0.180000       12.0110           0
      6805 MEMB     51       POPC     H3R      HAL2     0.900000E-01   1.00800           0
      6806 MEMB     51       POPC     H3S      HAL2     0.900000E-01   1.00800           0
      6807 MEMB     51       POPC     C24      CTL2    -0.180000       12.0110           0
      6808 MEMB     51       POPC     H4R      HAL2     0.900000E-01   1.00800           0
      6809 MEMB     51       POPC     H4S      HAL2     0.900000E-01   1.00800           0
      6810 MEMB     51       POPC     C25      CTL2    -0.180000       12.0110           0
      6811 MEMB     51       POPC     H5R      HAL2     0.900000E-01   1.00800           0
      6812 MEMB     51       POPC     H5S      HAL2     0.900000E-01   1.00800           0
      6813 MEMB     51       POPC     C26      CTL2    -0.180000       12.0110           0
      6814 MEMB     51       POPC     H6R      HAL2     0.900000E-01   1.00800           0
      6815 MEMB     51       POPC     H6S      HAL2     0.900000E-01   1.00800           0
      6816 MEMB     51       POPC     C27      CTL2    -0.180000       12.0110           0
      6817 MEMB     51       POPC     H7R      HAL2     0.900000E-01   1.00800           0
      6818 MEMB     51       POPC     H7S      HAL2     0.900000E-01   1.00800           0
      6819 MEMB     51       POPC     C28      CTL2    -0.180000       12.0110           0
      6820 MEMB     51       POPC     H8R      HAL2     0.900000E-01   1.00800           0
      6821 MEMB     51       POPC     H8S      HAL2     0.900000E-01   1.00800           0
      6822 MEMB     51       POPC     C29      CEL1    -0.150000       12.0110           0
      6823 MEMB     51       POPC     H91      HEL1     0.150000       1.00800           0
      6824 MEMB     51       POPC     C210     CEL1    -0.150000       12.0110           0
      6825 MEMB     51       POPC     H101     HEL1     0.150000       1.00800           0
      6826 MEMB     51       POPC     C211     CTL2    -0.180000       12.0110           0
      6827 MEMB     51       POPC     H11R     HAL2     0.900000E-01   1.00800           0
      6828 MEMB     51       POPC     H11S     HAL2     0.900000E-01   1.00800           0
      6829 MEMB     51       POPC     C212     CTL2    -0.180000       12.0110           0
      6830 MEMB     51       POPC     H12R     HAL2     0.900000E-01   1.00800           0
      6831 MEMB     51       POPC     H12S     HAL2     0.900000E-01   1.00800           0
      6832 MEMB     51       POPC     C213     CTL2    -0.180000       12.0110           0
      6833 MEMB     51       POPC     H13R     HAL2     0.900000E-01   1.00800           0
      6834 MEMB     51       POPC     H13S     HAL2     0.900000E-01   1.00800           0
      6835 MEMB     51       POPC     C214     CTL2    -0.180000       12.0110           0
      6836 MEMB     51       POPC     H14R     HAL2     0.900000E-01   1.00800           0
      6837 MEMB     51       POPC     H14S     HAL2     0.900000E-01   1.00800           0
      6838 MEMB     51       POPC     C215     CTL2    -0.180000       12.0110           0
      6839 MEMB     51       POPC     H15R     HAL2     0.900000E-01   1.00800           0
      6840 MEMB     51       POPC     H15S     HAL2     0.900000E-01   1.00800           0
      6841 MEMB     51       POPC     C216     CTL2    -0.180000       12.0110           0
      6842 MEMB     51       POPC     H16R     HAL2     0.900000E-01   1.00800           0
      6843 MEMB     51       POPC     H16S     HAL2     0.900000E-01   1.00800           0
      6844 MEMB     51       POPC     C217     CTL2    -0.180000       12.0110           0
      6845 MEMB     51       POPC     H17R     HAL2     0.900000E-01   1.00800           0
      6846 MEMB     51       POPC     H17S     HAL2     0.900000E-01   1.00800           0
      6847 MEMB     51       POPC     C218     CTL3    -0.270000       12.0110           0
      6848 MEMB     51       POPC     H18R     HAL3     0.900000E-01   1.00800           0
      6849 MEMB     51       POPC     H18S     HAL3     0.900000E-01   1.00800           0
      6850 MEMB     51       POPC     H18T     HAL3     0.900000E-01   1.00800           0
      6851 MEMB     51       POPC     C33      CTL2    -0.180000       12.0110           0
      6852 MEMB     51       POPC     H3X      HAL2     0.900000E-01   1.00800           0
      6853 MEMB     51       POPC     H3Y      HAL2     0.900000E-01   1.00800           0
      6854 MEMB     51       POPC     C34      CTL2    -0.180000       12.0110           0
      6855 MEMB     51       POPC     H4X      HAL2     0.900000E-01   1.00800           0
      6856 MEMB     51       POPC     H4Y      HAL2     0.900000E-01   1.00800           0
      6857 MEMB     51       POPC     C35      CTL2    -0.180000       12.0110           0
      6858 MEMB     51       POPC     H5X      HAL2     0.900000E-01   1.00800           0
      6859 MEMB     51       POPC     H5Y      HAL2     0.900000E-01   1.00800           0
      6860 MEMB     51       POPC     C36      CTL2    -0.180000       12.0110           0
      6861 MEMB     51       POPC     H6X      HAL2     0.900000E-01   1.00800           0
      6862 MEMB     51       POPC     H6Y      HAL2     0.900000E-01   1.00800           0
      6863 MEMB     51       POPC     C37      CTL2    -0.180000       12.0110           0
      6864 MEMB     51       POPC     H7X      HAL2     0.900000E-01   1.00800           0
      6865 MEMB     51       POPC     H7Y      HAL2     0.900000E-01   1.00800           0
      6866 MEMB     51       POPC     C38      CTL2    -0.180000       12.0110           0
      6867 MEMB     51       POPC     H8X      HAL2     0.900000E-01   1.00800           0
      6868 MEMB     51       POPC     H8Y      HAL2     0.900000E-01   1.00800           0
      6869 MEMB     51       POPC     C39      CTL2    -0.180000       12.0110           0
      6870 MEMB     51       POPC     H9X      HAL2     0.900000E-01   1.00800           0
      6871 MEMB     51       POPC     H9Y      HAL2     0.900000E-01   1.00800           0
      6872 MEMB     51       POPC     C310     CTL2    -0.180000       12.0110           0
      6873 MEMB     51       POPC     H10X     HAL2     0.900000E-01   1.00800           0
      6874 MEMB     51       POPC     H10Y     HAL2     0.900000E-01   1.00800           0
      6875 MEMB     51       POPC     C311     CTL2    -0.180000       12.0110           0
      6876 MEMB     51       POPC     H11X     HAL2     0.900000E-01   1.00800           0
      6877 MEMB     51       POPC     H11Y     HAL2     0.900000E-01   1.00800           0
      6878 MEMB     51       POPC     C312     CTL2    -0.180000       12.0110           0
      6879 MEMB     51       POPC     H12X     HAL2     0.900000E-01   1.00800           0
      6880 MEMB     51       POPC     H12Y     HAL2     0.900000E-01   1.00800           0
      6881 MEMB     51       POPC     C313     CTL2    -0.180000       12.0110           0
      6882 MEMB     51       POPC     H13X     HAL2     0.900000E-01   1.00800           0
      6883 MEMB     51       POPC     H13Y     HAL2     0.900000E-01   1.00800           0
      6884 MEMB     51       POPC     C314     CTL2    -0.180000       12.0110           0
      6885 MEMB     51       POPC     H14X     HAL2     0.900000E-01   1.00800           0
      6886 MEMB     51       POPC     H14Y     HAL2     0.900000E-01   1.00800           0
      6887 MEMB     51       POPC     C315     CTL2    -0.180000       12.0110           0
      6888 MEMB     51       POPC     H15X     HAL2     0.900000E-01   1.00800           0
      6889 MEMB     51       POPC     H15Y     HAL2     0.900000E-01   1.00800           0
      6890 MEMB     51       POPC     C316     CTL3    -0.270000       12.0110           0
      6891 MEMB     51       POPC     H16X     HAL3     0.900000E-01   1.00800           0
      6892 MEMB     51       POPC     H16Y     HAL3     0.900000E-01   1.00800           0
      6893 MEMB     51       POPC     H16Z     HAL3     0.900000E-01   1.00800           0
      6894 MEMB     52       POPC     N        NTL     -0.600000       14.0070           0
      6895 MEMB     52       POPC     C12      CTL2    -0.100000       12.0110           0
      6896 MEMB     52       POPC     H12A     HL       0.250000       1.00800           0
      6897 MEMB     52       POPC     H12B     HL       0.250000       1.00800           0
      6898 MEMB     52       POPC     C13      CTL5    -0.350000       12.0110           0
      6899 MEMB     52       POPC     H13A     HL       0.250000       1.00800           0
      6900 MEMB     52       POPC     H13B     HL       0.250000       1.00800           0
      6901 MEMB     52       POPC     H13C     HL       0.250000       1.00800           0
      6902 MEMB     52       POPC     C14      CTL5    -0.350000       12.0110           0
      6903 MEMB     52       POPC     H14A     HL       0.250000       1.00800           0
      6904 MEMB     52       POPC     H14B     HL       0.250000       1.00800           0
      6905 MEMB     52       POPC     H14C     HL       0.250000       1.00800           0
      6906 MEMB     52       POPC     C15      CTL5    -0.350000       12.0110           0
      6907 MEMB     52       POPC     H15A     HL       0.250000       1.00800           0
      6908 MEMB     52       POPC     H15B     HL       0.250000       1.00800           0
      6909 MEMB     52       POPC     H15C     HL       0.250000       1.00800           0
      6910 MEMB     52       POPC     C11      CTL2    -0.800000E-01   12.0110           0
      6911 MEMB     52       POPC     H11A     HAL2     0.900000E-01   1.00800           0
      6912 MEMB     52       POPC     H11B     HAL2     0.900000E-01   1.00800           0
      6913 MEMB     52       POPC     P        PL       1.500000       30.9740           0
      6914 MEMB     52       POPC     O13      O2L     -0.780000       15.9994           0
      6915 MEMB     52       POPC     O14      O2L     -0.780000       15.9994           0
      6916 MEMB     52       POPC     O12      OSLP    -0.570000       15.9994           0
      6917 MEMB     52       POPC     O11      OSLP    -0.570000       15.9994           0
      6918 MEMB     52       POPC     C1       CTL2    -0.800000E-01   12.0110           0
      6919 MEMB     52       POPC     HA       HAL2     0.900000E-01   1.00800           0
      6920 MEMB     52       POPC     HB       HAL2     0.900000E-01   1.00800           0
      6921 MEMB     52       POPC     C2       CTL1     0.170000       12.0110           0
      6922 MEMB     52       POPC     HS       HAL1     0.900000E-01   1.00800           0
      6923 MEMB     52       POPC     O21      OSL     -0.490000       15.9994           0
      6924 MEMB     52       POPC     C21      CL       0.900000       12.0110           0
      6925 MEMB     52       POPC     O22      OBL     -0.630000       15.9994           0
      6926 MEMB     52       POPC     C22      CTL2    -0.220000       12.0110           0
      6927 MEMB     52       POPC     H2R      HAL2     0.900000E-01   1.00800           0
      6928 MEMB     52       POPC     H2S      HAL2     0.900000E-01   1.00800           0
      6929 MEMB     52       POPC     C3       CTL2     0.800000E-01   12.0110           0
      6930 MEMB     52       POPC     HX       HAL2     0.900000E-01   1.00800           0
      6931 MEMB     52       POPC     HY       HAL2     0.900000E-01   1.00800           0
      6932 MEMB     52       POPC     O31      OSL     -0.490000       15.9994           0
      6933 MEMB     52       POPC     C31      CL       0.900000       12.0110           0
      6934 MEMB     52       POPC     O32      OBL     -0.630000       15.9994           0
      6935 MEMB     52       POPC     C32      CTL2    -0.220000       12.0110           0
      6936 MEMB     52       POPC     H2X      HAL2     0.900000E-01   1.00800           0
      6937 MEMB     52       POPC     H2Y      HAL2     0.900000E-01   1.00800           0
      6938 MEMB     52       POPC     C23      CTL2    -0.180000       12.0110           0
      6939 MEMB     52       POPC     H3R      HAL2     0.900000E-01   1.00800           0
      6940 MEMB     52       POPC     H3S      HAL2     0.900000E-01   1.00800           0
      6941 MEMB     52       POPC     C24      CTL2    -0.180000       12.0110           0
      6942 MEMB     52       POPC     H4R      HAL2     0.900000E-01   1.00800           0
      6943 MEMB     52       POPC     H4S      HAL2     0.900000E-01   1.00800           0
      6944 MEMB     52       POPC     C25      CTL2    -0.180000       12.0110           0
      6945 MEMB     52       POPC     H5R      HAL2     0.900000E-01   1.00800           0
      6946 MEMB     52       POPC     H5S      HAL2     0.900000E-01   1.00800           0
      6947 MEMB     52       POPC     C26      CTL2    -0.180000       12.0110           0
      6948 MEMB     52       POPC     H6R      HAL2     0.900000E-01   1.00800           0
      6949 MEMB     52       POPC     H6S      HAL2     0.900000E-01   1.00800           0
      6950 MEMB     52       POPC     C27      CTL2    -0.180000       12.0110           0
      6951 MEMB     52       POPC     H7R      HAL2     0.900000E-01   1.00800           0
      6952 MEMB     52       POPC     H7S      HAL2     0.900000E-01   1.00800           0
      6953 MEMB     52       POPC     C28      CTL2    -0.180000       12.0110           0
      6954 MEMB     52       POPC     H8R      HAL2     0.900000E-01   1.00800           0
      6955 MEMB     52       POPC     H8S      HAL2     0.900000E-01   1.00800           0
      6956 MEMB     52       POPC     C29      CEL1    -0.150000       12.0110           0
      6957 MEMB     52       POPC     H91      HEL1     0.150000       1.00800           0
      6958 MEMB     52       POPC     C210     CEL1    -0.150000       12.0110           0
      6959 MEMB     52       POPC     H101     HEL1     0.150000       1.00800           0
      6960 MEMB     52       POPC     C211     CTL2    -0.180000       12.0110           0
      6961 MEMB     52       POPC     H11R     HAL2     0.900000E-01   1.00800           0
      6962 MEMB     52       POPC     H11S     HAL2     0.900000E-01   1.00800           0
      6963 MEMB     52       POPC     C212     CTL2    -0.180000       12.0110           0
      6964 MEMB     52       POPC     H12R     HAL2     0.900000E-01   1.00800           0
      6965 MEMB     52       POPC     H12S     HAL2     0.900000E-01   1.00800           0
      6966 MEMB     52       POPC     C213     CTL2    -0.180000       12.0110           0
      6967 MEMB     52       POPC     H13R     HAL2     0.900000E-01   1.00800           0
      6968 MEMB     52       POPC     H13S     HAL2     0.900000E-01   1.00800           0
      6969 MEMB     52       POPC     C214     CTL2    -0.180000       12.0110           0
      6970 MEMB     52       POPC     H14R     HAL2     0.900000E-01   1.00800           0
      6971 MEMB     52       POPC     H14S     HAL2     0.900000E-01   1.00800           0
      6972 MEMB     52       POPC     C215     CTL2    -0.180000       12.0110           0
      6973 MEMB     52       POPC     H15R     HAL2     0.900000E-01   1.00800           0
      6974 MEMB     52       POPC     H15S     HAL2     0.900000E-01   1.00800           0
      6975 MEMB     52       POPC     C216     CTL2    -0.180000       12.0110           0
      6976 MEMB     52       POPC     H16R     HAL2     0.900000E-01   1.00800           0
      6977 MEMB     52       POPC     H16S     HAL2     0.900000E-01   1.00800           0
      6978 MEMB     52       POPC     C217     CTL2    -0.180000       12.0110           0
      6979 MEMB     52       POPC     H17R     HAL2     0.900000E-01   1.00800           0
      6980 MEMB     52       POPC     H17S     HAL2     0.900000E-01   1.00800           0
      6981 MEMB     52       POPC     C218     CTL3    -0.270000       12.0110           0
      6982 MEMB     52       POPC     H18R     HAL3     0.900000E-01   1.00800           0
      6983 MEMB     52       POPC     H18S     HAL3     0.900000E-01   1.00800           0
      6984 MEMB     52       POPC     H18T     HAL3     0.900000E-01   1.00800           0
      6985 MEMB     52       POPC     C33      CTL2    -0.180000       12.0110           0
      6986 MEMB     52       POPC     H3X      HAL2     0.900000E-01   1.00800           0
      6987 MEMB     52       POPC     H3Y      HAL2     0.900000E-01   1.00800           0
      6988 MEMB     52       POPC     C34      CTL2    -0.180000       12.0110           0
      6989 MEMB     52       POPC     H4X      HAL2     0.900000E-01   1.00800           0
      6990 MEMB     52       POPC     H4Y      HAL2     0.900000E-01   1.00800           0
      6991 MEMB     52       POPC     C35      CTL2    -0.180000       12.0110           0
      6992 MEMB     52       POPC     H5X      HAL2     0.900000E-01   1.00800           0
      6993 MEMB     52       POPC     H5Y      HAL2     0.900000E-01   1.00800           0
      6994 MEMB     52       POPC     C36      CTL2    -0.180000       12.0110           0
      6995 MEMB     52       POPC     H6X      HAL2     0.900000E-01   1.00800           0
      6996 MEMB     52       POPC     H6Y      HAL2     0.900000E-01   1.00800           0
      6997 MEMB     52       POPC     C37      CTL2    -0.180000       12.0110           0
      6998 MEMB     52       POPC     H7X      HAL2     0.900000E-01   1.00800           0
      6999 MEMB     52       POPC     H7Y      HAL2     0.900000E-01   1.00800           0
      7000 MEMB     52       POPC     C38      CTL2    -0.180000       12.0110           0
      7001 MEMB     52       POPC     H8X      HAL2     0.900000E-01   1.00800           0
      7002 MEMB     52       POPC     H8Y      HAL2     0.900000E-01   1.00800           0
      7003 MEMB     52       POPC     C39      CTL2    -0.180000       12.0110           0
      7004 MEMB     52       POPC     H9X      HAL2     0.900000E-01   1.00800           0
      7005 MEMB     52       POPC     H9Y      HAL2     0.900000E-01   1.00800           0
      7006 MEMB     52       POPC     C310     CTL2    -0.180000       12.0110           0
      7007 MEMB     52       POPC     H10X     HAL2     0.900000E-01   1.00800           0
      7008 MEMB     52       POPC     H10Y     HAL2     0.900000E-01   1.00800           0
      7009 MEMB     52       POPC     C311     CTL2    -0.180000       12.0110           0
      7010 MEMB     52       POPC     H11X     HAL2     0.900000E-01   1.00800           0
      7011 MEMB     52       POPC     H11Y     HAL2     0.900000E-01   1.00800           0
      7012 MEMB     52       POPC     C312     CTL2    -0.180000       12.0110           0
      7013 MEMB     52       POPC     H12X     HAL2     0.900000E-01   1.00800           0
      7014 MEMB     52       POPC     H12Y     HAL2     0.900000E-01   1.00800           0
      7015 MEMB     52       POPC     C313     CTL2    -0.180000       12.0110           0
      7016 MEMB     52       POPC     H13X     HAL2     0.900000E-01   1.00800           0
      7017 MEMB     52       POPC     H13Y     HAL2     0.900000E-01   1.00800           0
      7018 MEMB     52       POPC     C314     CTL2    -0.180000       12.0110           0
      7019 MEMB     52       POPC     H14X     HAL2     0.900000E-01   1.00800           0
      7020 MEMB     52       POPC     H14Y     HAL2     0.900000E-01   1.00800           0
      7021 MEMB     52       POPC     C315     CTL2    -0.180000       12.0110           0
      7022 MEMB     52       POPC     H15X     HAL2     0.900000E-01   1.00800           0
      7023 MEMB     52       POPC     H15Y     HAL2     0.900000E-01   1.00800           0
      7024 MEMB     52       POPC     C316     CTL3    -0.270000       12.0110           0
      7025 MEMB     52       POPC     H16X     HAL3     0.900000E-01   1.00800           0
      7026 MEMB     52       POPC     H16Y     HAL3     0.900000E-01   1.00800           0
      7027 MEMB     52       POPC     H16Z     HAL3     0.900000E-01   1.00800           0
      7028 MEMB     53       POPC     N        NTL     -0.600000       14.0070           0
      7029 MEMB     53       POPC     C12      CTL2    -0.100000       12.0110           0
      7030 MEMB     53       POPC     H12A     HL       0.250000       1.00800           0
      7031 MEMB     53       POPC     H12B     HL       0.250000       1.00800           0
      7032 MEMB     53       POPC     C13      CTL5    -0.350000       12.0110           0
      7033 MEMB     53       POPC     H13A     HL       0.250000       1.00800           0
      7034 MEMB     53       POPC     H13B     HL       0.250000       1.00800           0
      7035 MEMB     53       POPC     H13C     HL       0.250000       1.00800           0
      7036 MEMB     53       POPC     C14      CTL5    -0.350000       12.0110           0
      7037 MEMB     53       POPC     H14A     HL       0.250000       1.00800           0
      7038 MEMB     53       POPC     H14B     HL       0.250000       1.00800           0
      7039 MEMB     53       POPC     H14C     HL       0.250000       1.00800           0
      7040 MEMB     53       POPC     C15      CTL5    -0.350000       12.0110           0
      7041 MEMB     53       POPC     H15A     HL       0.250000       1.00800           0
      7042 MEMB     53       POPC     H15B     HL       0.250000       1.00800           0
      7043 MEMB     53       POPC     H15C     HL       0.250000       1.00800           0
      7044 MEMB     53       POPC     C11      CTL2    -0.800000E-01   12.0110           0
      7045 MEMB     53       POPC     H11A     HAL2     0.900000E-01   1.00800           0
      7046 MEMB     53       POPC     H11B     HAL2     0.900000E-01   1.00800           0
      7047 MEMB     53       POPC     P        PL       1.500000       30.9740           0
      7048 MEMB     53       POPC     O13      O2L     -0.780000       15.9994           0
      7049 MEMB     53       POPC     O14      O2L     -0.780000       15.9994           0
      7050 MEMB     53       POPC     O12      OSLP    -0.570000       15.9994           0
      7051 MEMB     53       POPC     O11      OSLP    -0.570000       15.9994           0
      7052 MEMB     53       POPC     C1       CTL2    -0.800000E-01   12.0110           0
      7053 MEMB     53       POPC     HA       HAL2     0.900000E-01   1.00800           0
      7054 MEMB     53       POPC     HB       HAL2     0.900000E-01   1.00800           0
      7055 MEMB     53       POPC     C2       CTL1     0.170000       12.0110           0
      7056 MEMB     53       POPC     HS       HAL1     0.900000E-01   1.00800           0
      7057 MEMB     53       POPC     O21      OSL     -0.490000       15.9994           0
      7058 MEMB     53       POPC     C21      CL       0.900000       12.0110           0
      7059 MEMB     53       POPC     O22      OBL     -0.630000       15.9994           0
      7060 MEMB     53       POPC     C22      CTL2    -0.220000       12.0110           0
      7061 MEMB     53       POPC     H2R      HAL2     0.900000E-01   1.00800           0
      7062 MEMB     53       POPC     H2S      HAL2     0.900000E-01   1.00800           0
      7063 MEMB     53       POPC     C3       CTL2     0.800000E-01   12.0110           0
      7064 MEMB     53       POPC     HX       HAL2     0.900000E-01   1.00800           0
      7065 MEMB     53       POPC     HY       HAL2     0.900000E-01   1.00800           0
      7066 MEMB     53       POPC     O31      OSL     -0.490000       15.9994           0
      7067 MEMB     53       POPC     C31      CL       0.900000       12.0110           0
      7068 MEMB     53       POPC     O32      OBL     -0.630000       15.9994           0
      7069 MEMB     53       POPC     C32      CTL2    -0.220000       12.0110           0
      7070 MEMB     53       POPC     H2X      HAL2     0.900000E-01   1.00800           0
      7071 MEMB     53       POPC     H2Y      HAL2     0.900000E-01   1.00800           0
      7072 MEMB     53       POPC     C23      CTL2    -0.180000       12.0110           0
      7073 MEMB     53       POPC     H3R      HAL2     0.900000E-01   1.00800           0
      7074 MEMB     53       POPC     H3S      HAL2     0.900000E-01   1.00800           0
      7075 MEMB     53       POPC     C24      CTL2    -0.180000       12.0110           0
      7076 MEMB     53       POPC     H4R      HAL2     0.900000E-01   1.00800           0
      7077 MEMB     53       POPC     H4S      HAL2     0.900000E-01   1.00800           0
      7078 MEMB     53       POPC     C25      CTL2    -0.180000       12.0110           0
      7079 MEMB     53       POPC     H5R      HAL2     0.900000E-01   1.00800           0
      7080 MEMB     53       POPC     H5S      HAL2     0.900000E-01   1.00800           0
      7081 MEMB     53       POPC     C26      CTL2    -0.180000       12.0110           0
      7082 MEMB     53       POPC     H6R      HAL2     0.900000E-01   1.00800           0
      7083 MEMB     53       POPC     H6S      HAL2     0.900000E-01   1.00800           0
      7084 MEMB     53       POPC     C27      CTL2    -0.180000       12.0110           0
      7085 MEMB     53       POPC     H7R      HAL2     0.900000E-01   1.00800           0
      7086 MEMB     53       POPC     H7S      HAL2     0.900000E-01   1.00800           0
      7087 MEMB     53       POPC     C28      CTL2    -0.180000       12.0110           0
      7088 MEMB     53       POPC     H8R      HAL2     0.900000E-01   1.00800           0
      7089 MEMB     53       POPC     H8S      HAL2     0.900000E-01   1.00800           0
      7090 MEMB     53       POPC     C29      CEL1    -0.150000       12.0110           0
      7091 MEMB     53       POPC     H91      HEL1     0.150000       1.00800           0
      7092 MEMB     53       POPC     C210     CEL1    -0.150000       12.0110           0
      7093 MEMB     53       POPC     H101     HEL1     0.150000       1.00800           0
      7094 MEMB     53       POPC     C211     CTL2    -0.180000       12.0110           0
      7095 MEMB     53       POPC     H11R     HAL2     0.900000E-01   1.00800           0
      7096 MEMB     53       POPC     H11S     HAL2     0.900000E-01   1.00800           0
      7097 MEMB     53       POPC     C212     CTL2    -0.180000       12.0110           0
      7098 MEMB     53       POPC     H12R     HAL2     0.900000E-01   1.00800           0
      7099 MEMB     53       POPC     H12S     HAL2     0.900000E-01   1.00800           0
      7100 MEMB     53       POPC     C213     CTL2    -0.180000       12.0110           0
      7101 MEMB     53       POPC     H13R     HAL2     0.900000E-01   1.00800           0
      7102 MEMB     53       POPC     H13S     HAL2     0.900000E-01   1.00800           0
      7103 MEMB     53       POPC     C214     CTL2    -0.180000       12.0110           0
      7104 MEMB     53       POPC     H14R     HAL2     0.900000E-01   1.00800           0
      7105 MEMB     53       POPC     H14S     HAL2     0.900000E-01   1.00800           0
      7106 MEMB     53       POPC     C215     CTL2    -0.180000       12.0110           0
      7107 MEMB     53       POPC     H15R     HAL2     0.900000E-01   1.00800           0
      7108 MEMB     53       POPC     H15S     HAL2     0.900000E-01   1.00800           0
      7109 MEMB     53       POPC     C216     CTL2    -0.180000       12.0110           0
      7110 MEMB     53       POPC     H16R     HAL2     0.900000E-01   1.00800           0
      7111 MEMB     53       POPC     H16S     HAL2     0.900000E-01   1.00800           0
      7112 MEMB     53       POPC     C217     CTL2    -0.180000       12.0110           0
      7113 MEMB     53       POPC     H17R     HAL2     0.900000E-01   1.00800           0
      7114 MEMB     53       POPC     H17S     HAL2     0.900000E-01   1.00800           0
      7115 MEMB     53       POPC     C218     CTL3    -0.270000       12.0110           0
      7116 MEMB     53       POPC     H18R     HAL3     0.900000E-01   1.00800           0
      7117 MEMB     53       POPC     H18S     HAL3     0.900000E-01   1.00800           0
      7118 MEMB     53       POPC     H18T     HAL3     0.900000E-01   1.00800           0
      7119 MEMB     53       POPC     C33      CTL2    -0.180000       12.0110           0
      7120 MEMB     53       POPC     H3X      HAL2     0.900000E-01   1.00800           0
      7121 MEMB     53       POPC     H3Y      HAL2     0.900000E-01   1.00800           0
      7122 MEMB     53       POPC     C34      CTL2    -0.180000       12.0110           0
      7123 MEMB     53       POPC     H4X      HAL2     0.900000E-01   1.00800           0
      7124 MEMB     53       POPC     H4Y      HAL2     0.900000E-01   1.00800           0
      7125 MEMB     53       POPC     C35      CTL2    -0.180000       12.0110           0
      7126 MEMB     53       POPC     H5X      HAL2     0.900000E-01   1.00800           0
      7127 MEMB     53       POPC     H5Y      HAL2     0.900000E-01   1.00800           0
      7128 MEMB     53       POPC     C36      CTL2    -0.180000       12.0110           0
      7129 MEMB     53       POPC     H6X      HAL2     0.900000E-01   1.00800           0
      7130 MEMB     53       POPC     H6Y      HAL2     0.900000E-01   1.00800           0
      7131 MEMB     53       POPC     C37      CTL2    -0.180000       12.0110           0
      7132 MEMB     53       POPC     H7X      HAL2     0.900000E-01   1.00800           0
      7133 MEMB     53       POPC     H7Y      HAL2     0.900000E-01   1.00800           0
      7134 MEMB     53       POPC     C38      CTL2    -0.180000       12.0110           0
      7135 MEMB     53       POPC     H8X      HAL2     0.900000E-01   1.00800           0
      7136 MEMB     53       POPC     H8Y      HAL2     0.900000E-01   1.00800           0
      7137 MEMB     53       POPC     C39      CTL2    -0.180000       12.0110           0
      7138 MEMB     53       POPC     H9X      HAL2     0.900000E-01   1.00800           0
      7139 MEMB     53       POPC     H9Y      HAL2     0.900000E-01   1.00800           0
      7140 MEMB     53       POPC     C310     CTL2    -0.180000       12.0110           0
      7141 MEMB     53       POPC     H10X     HAL2     0.900000E-01   1.00800           0
      7142 MEMB     53       POPC     H10Y     HAL2     0.900000E-01   1.00800           0
      7143 MEMB     53       POPC     C311     CTL2    -0.180000       12.0110           0
      7144 MEMB     53       POPC     H11X     HAL2     0.900000E-01   1.00800           0
      7145 MEMB     53       POPC     H11Y     HAL2     0.900000E-01   1.00800           0
      7146 MEMB     53       POPC     C312     CTL2    -0.180000       12.0110           0
      7147 MEMB     53       POPC     H12X     HAL2     0.900000E-01   1.00800           0
      7148 MEMB     53       POPC     H12Y     HAL2     0.900000E-01   1.00800           0
      7149 MEMB     53       POPC     C313     CTL2    -0.180000       12.0110           0
      7150 MEMB     53       POPC     H13X     HAL2     0.900000E-01   1.00800           0
      7151 MEMB     53       POPC     H13Y     HAL2     0.900000E-01   1.00800           0
      7152 MEMB     53       POPC     C314     CTL2    -0.180000       12.0110           0
      7153 MEMB     53       POPC     H14X     HAL2     0.900000E-01   1.00800           0
      7154 MEMB     53       POPC     H14Y     HAL2     0.900000E-01   1.00800           0
      7155 MEMB     53       POPC     C315     CTL2    -0.180000       12.0110           0
      7156 MEMB     53       POPC     H15X     HAL2     0.900000E-01   1.00800           0
      7157 MEMB     53       POPC     H15Y     HAL2     0.900000E-01   1.00800           0
      7158 MEMB     53       POPC     C316     CTL3    -0.270000       12.0110           0
      7159 MEMB     53       POPC     H16X     HAL3     0.900000E-01   1.00800           0
      7160 MEMB     53       POPC     H16Y     HAL3     0.900000E-01   1.00800           0
      7161 MEMB     53       POPC     H16Z     HAL3     0.900000E-01   1.00800           0
      7162 MEMB     54       POPC     N        NTL     -0.600000       14.0070           0
      7163 MEMB     54       POPC     C12      CTL2    -0.100000       12.0110           0
      7164 MEMB     54       POPC     H12A     HL       0.250000       1.00800           0
      7165 MEMB     54       POPC     H12B     HL       0.250000       1.00800           0
      7166 MEMB     54       POPC     C13      CTL5    -0.350000       12.0110           0
      7167 MEMB     54       POPC     H13A     HL       0.250000       1.00800           0
      7168 MEMB     54       POPC     H13B     HL       0.250000       1.00800           0
      7169 MEMB     54       POPC     H13C     HL       0.250000       1.00800           0
      7170 MEMB     54       POPC     C14      CTL5    -0.350000       12.0110           0
      7171 MEMB     54       POPC     H14A     HL       0.250000       1.00800           0
      7172 MEMB     54       POPC     H14B     HL       0.250000       1.00800           0
      7173 MEMB     54       POPC     H14C     HL       0.250000       1.00800           0
      7174 MEMB     54       POPC     C15      CTL5    -0.350000       12.0110           0
      7175 MEMB     54       POPC     H15A     HL       0.250000       1.00800           0
      7176 MEMB     54       POPC     H15B     HL       0.250000       1.00800           0
      7177 MEMB     54       POPC     H15C     HL       0.250000       1.00800           0
      7178 MEMB     54       POPC     C11      CTL2    -0.800000E-01   12.0110           0
      7179 MEMB     54       POPC     H11A     HAL2     0.900000E-01   1.00800           0
      7180 MEMB     54       POPC     H11B     HAL2     0.900000E-01   1.00800           0
      7181 MEMB     54       POPC     P        PL       1.500000       30.9740           0
      7182 MEMB     54       POPC     O13      O2L     -0.780000       15.9994           0
      7183 MEMB     54       POPC     O14      O2L     -0.780000       15.9994           0
      7184 MEMB     54       POPC     O12      OSLP    -0.570000       15.9994           0
      7185 MEMB     54       POPC     O11      OSLP    -0.570000       15.9994           0
      7186 MEMB     54       POPC     C1       CTL2    -0.800000E-01   12.0110           0
      7187 MEMB     54       POPC     HA       HAL2     0.900000E-01   1.00800           0
      7188 MEMB     54       POPC     HB       HAL2     0.900000E-01   1.00800           0
      7189 MEMB     54       POPC     C2       CTL1     0.170000       12.0110           0
      7190 MEMB     54       POPC     HS       HAL1     0.900000E-01   1.00800           0
      7191 MEMB     54       POPC     O21      OSL     -0.490000       15.9994           0
      7192 MEMB     54       POPC     C21      CL       0.900000       12.0110           0
      7193 MEMB     54       POPC     O22      OBL     -0.630000       15.9994           0
      7194 MEMB     54       POPC     C22      CTL2    -0.220000       12.0110           0
      7195 MEMB     54       POPC     H2R      HAL2     0.900000E-01   1.00800           0
      7196 MEMB     54       POPC     H2S      HAL2     0.900000E-01   1.00800           0
      7197 MEMB     54       POPC     C3       CTL2     0.800000E-01   12.0110           0
      7198 MEMB     54       POPC     HX       HAL2     0.900000E-01   1.00800           0
      7199 MEMB     54       POPC     HY       HAL2     0.900000E-01   1.00800           0
      7200 MEMB     54       POPC     O31      OSL     -0.490000       15.9994           0
      7201 MEMB     54       POPC     C31      CL       0.900000       12.0110           0
      7202 MEMB     54       POPC     O32      OBL     -0.630000       15.9994           0
      7203 MEMB     54       POPC     C32      CTL2    -0.220000       12.0110           0
      7204 MEMB     54       POPC     H2X      HAL2     0.900000E-01   1.00800           0
      7205 MEMB     54       POPC     H2Y      HAL2     0.900000E-01   1.00800           0
      7206 MEMB     54       POPC     C23      CTL2    -0.180000       12.0110           0
      7207 MEMB     54       POPC     H3R      HAL2     0.900000E-01   1.00800           0
      7208 MEMB     54       POPC     H3S      HAL2     0.900000E-01   1.00800           0
      7209 MEMB     54       POPC     C24      CTL2    -0.180000       12.0110           0
      7210 MEMB     54       POPC     H4R      HAL2     0.900000E-01   1.00800           0
      7211 MEMB     54       POPC     H4S      HAL2     0.900000E-01   1.00800           0
      7212 MEMB     54       POPC     C25      CTL2    -0.180000       12.0110           0
      7213 MEMB     54       POPC     H5R      HAL2     0.900000E-01   1.00800           0
      7214 MEMB     54       POPC     H5S      HAL2     0.900000E-01   1.00800           0
      7215 MEMB     54       POPC     C26      CTL2    -0.180000       12.0110           0
      7216 MEMB     54       POPC     H6R      HAL2     0.900000E-01   1.00800           0
      7217 MEMB     54       POPC     H6S      HAL2     0.900000E-01   1.00800           0
      7218 MEMB     54       POPC     C27      CTL2    -0.180000       12.0110           0
      7219 MEMB     54       POPC     H7R      HAL2     0.900000E-01   1.00800           0
      7220 MEMB     54       POPC     H7S      HAL2     0.900000E-01   1.00800           0
      7221 MEMB     54       POPC     C28      CTL2    -0.180000       12.0110           0
      7222 MEMB     54       POPC     H8R      HAL2     0.900000E-01   1.00800           0
      7223 MEMB     54       POPC     H8S      HAL2     0.900000E-01   1.00800           0
      7224 MEMB     54       POPC     C29      CEL1    -0.150000       12.0110           0
      7225 MEMB     54       POPC     H91      HEL1     0.150000       1.00800           0
      7226 MEMB     54       POPC     C210     CEL1    -0.150000       12.0110           0
      7227 MEMB     54       POPC     H101     HEL1     0.150000       1.00800           0
      7228 MEMB     54       POPC     C211     CTL2    -0.180000       12.0110           0
      7229 MEMB     54       POPC     H11R     HAL2     0.900000E-01   1.00800           0
      7230 MEMB     54       POPC     H11S     HAL2     0.900000E-01   1.00800           0
      7231 MEMB     54       POPC     C212     CTL2    -0.180000       12.0110           0
      7232 MEMB     54       POPC     H12R     HAL2     0.900000E-01   1.00800           0
      7233 MEMB     54       POPC     H12S     HAL2     0.900000E-01   1.00800           0
      7234 MEMB     54       POPC     C213     CTL2    -0.180000       12.0110           0
      7235 MEMB     54       POPC     H13R     HAL2     0.900000E-01   1.00800           0
      7236 MEMB     54       POPC     H13S     HAL2     0.900000E-01   1.00800           0
      7237 MEMB     54       POPC     C214     CTL2    -0.180000       12.0110           0
      7238 MEMB     54       POPC     H14R     HAL2     0.900000E-01   1.00800           0
      7239 MEMB     54       POPC     H14S     HAL2     0.900000E-01   1.00800           0
      7240 MEMB     54       POPC     C215     CTL2    -0.180000       12.0110           0
      7241 MEMB     54       POPC     H15R     HAL2     0.900000E-01   1.00800           0
      7242 MEMB     54       POPC     H15S     HAL2     0.900000E-01   1.00800           0
      7243 MEMB     54       POPC     C216     CTL2    -0.180000       12.0110           0
      7244 MEMB     54       POPC     H16R     HAL2     0.900000E-01   1.00800           0
      7245 MEMB     54       POPC     H16S     HAL2     0.900000E-01   1.00800           0
      7246 MEMB     54       POPC     C217     CTL2    -0.180000       12.0110           0
      7247 MEMB     54       POPC     H17R     HAL2     0.900000E-01   1.00800           0
      7248 MEMB     54       POPC     H17S     HAL2     0.900000E-01   1.00800           0
      7249 MEMB     54       POPC     C218     CTL3    -0.270000       12.0110           0
      7250 MEMB     54       POPC     H18R     HAL3     0.900000E-01   1.00800           0
      7251 MEMB     54       POPC     H18S     HAL3     0.900000E-01   1.00800           0
      7252 MEMB     54       POPC     H18T     HAL3     0.900000E-01   1.00800           0
      7253 MEMB     54       POPC     C33      CTL2    -0.180000       12.0110           0
      7254 MEMB     54       POPC     H3X      HAL2     0.900000E-01   1.00800           0
      7255 MEMB     54       POPC     H3Y      HAL2     0.900000E-01   1.00800           0
      7256 MEMB     54       POPC     C34      CTL2    -0.180000       12.0110           0
      7257 MEMB     54       POPC     H4X      HAL2     0.900000E-01   1.00800           0
      7258 MEMB     54       POPC     H4Y      HAL2     0.900000E-01   1.00800           0
      7259 MEMB     54       POPC     C35      CTL2    -0.180000       12.0110           0
      7260 MEMB     54       POPC     H5X      HAL2     0.900000E-01   1.00800           0
      7261 MEMB     54       POPC     H5Y      HAL2     0.900000E-01   1.00800           0
      7262 MEMB     54       POPC     C36      CTL2    -0.180000       12.0110           0
      7263 MEMB     54       POPC     H6X      HAL2     0.900000E-01   1.00800           0
      7264 MEMB     54       POPC     H6Y      HAL2     0.900000E-01   1.00800           0
      7265 MEMB     54       POPC     C37      CTL2    -0.180000       12.0110           0
      7266 MEMB     54       POPC     H7X      HAL2     0.900000E-01   1.00800           0
      7267 MEMB     54       POPC     H7Y      HAL2     0.900000E-01   1.00800           0
      7268 MEMB     54       POPC     C38      CTL2    -0.180000       12.0110           0
      7269 MEMB     54       POPC     H8X      HAL2     0.900000E-01   1.00800           0
      7270 MEMB     54       POPC     H8Y      HAL2     0.900000E-01   1.00800           0
      7271 MEMB     54       POPC     C39      CTL2    -0.180000       12.0110           0
      7272 MEMB     54       POPC     H9X      HAL2     0.900000E-01   1.00800           0
      7273 MEMB     54       POPC     H9Y      HAL2     0.900000E-01   1.00800           0
      7274 MEMB     54       POPC     C310     CTL2    -0.180000       12.0110           0
      7275 MEMB     54       POPC     H10X     HAL2     0.900000E-01   1.00800           0
      7276 MEMB     54       POPC     H10Y     HAL2     0.900000E-01   1.00800           0
      7277 MEMB     54       POPC     C311     CTL2    -0.180000       12.0110           0
      7278 MEMB     54       POPC     H11X     HAL2     0.900000E-01   1.00800           0
      7279 MEMB     54       POPC     H11Y     HAL2     0.900000E-01   1.00800           0
      7280 MEMB     54       POPC     C312     CTL2    -0.180000       12.0110           0
      7281 MEMB     54       POPC     H12X     HAL2     0.900000E-01   1.00800           0
      7282 MEMB     54       POPC     H12Y     HAL2     0.900000E-01   1.00800           0
      7283 MEMB     54       POPC     C313     CTL2    -0.180000       12.0110           0
      7284 MEMB     54       POPC     H13X     HAL2     0.900000E-01   1.00800           0
      7285 MEMB     54       POPC     H13Y     HAL2     0.900000E-01   1.00800           0
      7286 MEMB     54       POPC     C314     CTL2    -0.180000       12.0110           0
      7287 MEMB     54       POPC     H14X     HAL2     0.900000E-01   1.00800           0
      7288 MEMB     54       POPC     H14Y     HAL2     0.900000E-01   1.00800           0
      7289 MEMB     54       POPC     C315     CTL2    -0.180000       12.0110           0
      7290 MEMB     54       POPC     H15X     HAL2     0.900000E-01   1.00800           0
      7291 MEMB     54       POPC     H15Y     HAL2     0.900000E-01   1.00800           0
      7292 MEMB     54       POPC     C316     CTL3    -0.270000       12.0110           0
      7293 MEMB     54       POPC     H16X     HAL3     0.900000E-01   1.00800           0
      7294 MEMB     54       POPC     H16Y     HAL3     0.900000E-01   1.00800           0
      7295 MEMB     54       POPC     H16Z     HAL3     0.900000E-01   1.00800           0
      7296 MEMB     55       POPC     N        NTL     -0.600000       14.0070           0
      7297 MEMB     55       POPC     C12      CTL2    -0.100000       12.0110           0
      7298 MEMB     55       POPC     H12A     HL       0.250000       1.00800           0
      7299 MEMB     55       POPC     H12B     HL       0.250000       1.00800           0
      7300 MEMB     55       POPC     C13      CTL5    -0.350000       12.0110           0
      7301 MEMB     55       POPC     H13A     HL       0.250000       1.00800           0
      7302 MEMB     55       POPC     H13B     HL       0.250000       1.00800           0
      7303 MEMB     55       POPC     H13C     HL       0.250000       1.00800           0
      7304 MEMB     55       POPC     C14      CTL5    -0.350000       12.0110           0
      7305 MEMB     55       POPC     H14A     HL       0.250000       1.00800           0
      7306 MEMB     55       POPC     H14B     HL       0.250000       1.00800           0
      7307 MEMB     55       POPC     H14C     HL       0.250000       1.00800           0
      7308 MEMB     55       POPC     C15      CTL5    -0.350000       12.0110           0
      7309 MEMB     55       POPC     H15A     HL       0.250000       1.00800           0
      7310 MEMB     55       POPC     H15B     HL       0.250000       1.00800           0
      7311 MEMB     55       POPC     H15C     HL       0.250000       1.00800           0
      7312 MEMB     55       POPC     C11      CTL2    -0.800000E-01   12.0110           0
      7313 MEMB     55       POPC     H11A     HAL2     0.900000E-01   1.00800           0
      7314 MEMB     55       POPC     H11B     HAL2     0.900000E-01   1.00800           0
      7315 MEMB     55       POPC     P        PL       1.500000       30.9740           0
      7316 MEMB     55       POPC     O13      O2L     -0.780000       15.9994           0
      7317 MEMB     55       POPC     O14      O2L     -0.780000       15.9994           0
      7318 MEMB     55       POPC     O12      OSLP    -0.570000       15.9994           0
      7319 MEMB     55       POPC     O11      OSLP    -0.570000       15.9994           0
      7320 MEMB     55       POPC     C1       CTL2    -0.800000E-01   12.0110           0
      7321 MEMB     55       POPC     HA       HAL2     0.900000E-01   1.00800           0
      7322 MEMB     55       POPC     HB       HAL2     0.900000E-01   1.00800           0
      7323 MEMB     55       POPC     C2       CTL1     0.170000       12.0110           0
      7324 MEMB     55       POPC     HS       HAL1     0.900000E-01   1.00800           0
      7325 MEMB     55       POPC     O21      OSL     -0.490000       15.9994           0
      7326 MEMB     55       POPC     C21      CL       0.900000       12.0110           0
      7327 MEMB     55       POPC     O22      OBL     -0.630000       15.9994           0
      7328 MEMB     55       POPC     C22      CTL2    -0.220000       12.0110           0
      7329 MEMB     55       POPC     H2R      HAL2     0.900000E-01   1.00800           0
      7330 MEMB     55       POPC     H2S      HAL2     0.900000E-01   1.00800           0
      7331 MEMB     55       POPC     C3       CTL2     0.800000E-01   12.0110           0
      7332 MEMB     55       POPC     HX       HAL2     0.900000E-01   1.00800           0
      7333 MEMB     55       POPC     HY       HAL2     0.900000E-01   1.00800           0
      7334 MEMB     55       POPC     O31      OSL     -0.490000       15.9994           0
      7335 MEMB     55       POPC     C31      CL       0.900000       12.0110           0
      7336 MEMB     55       POPC     O32      OBL     -0.630000       15.9994           0
      7337 MEMB     55       POPC     C32      CTL2    -0.220000       12.0110           0
      7338 MEMB     55       POPC     H2X      HAL2     0.900000E-01   1.00800           0
      7339 MEMB     55       POPC     H2Y      HAL2     0.900000E-01   1.00800           0
      7340 MEMB     55       POPC     C23      CTL2    -0.180000       12.0110           0
      7341 MEMB     55       POPC     H3R      HAL2     0.900000E-01   1.00800           0
      7342 MEMB     55       POPC     H3S      HAL2     0.900000E-01   1.00800           0
      7343 MEMB     55       POPC     C24      CTL2    -0.180000       12.0110           0
      7344 MEMB     55       POPC     H4R      HAL2     0.900000E-01   1.00800           0
      7345 MEMB     55       POPC     H4S      HAL2     0.900000E-01   1.00800           0
      7346 MEMB     55       POPC     C25      CTL2    -0.180000       12.0110           0
      7347 MEMB     55       POPC     H5R      HAL2     0.900000E-01   1.00800           0
      7348 MEMB     55       POPC     H5S      HAL2     0.900000E-01   1.00800           0
      7349 MEMB     55       POPC     C26      CTL2    -0.180000       12.0110           0
      7350 MEMB     55       POPC     H6R      HAL2     0.900000E-01   1.00800           0
      7351 MEMB     55       POPC     H6S      HAL2     0.900000E-01   1.00800           0
      7352 MEMB     55       POPC     C27      CTL2    -0.180000       12.0110           0
      7353 MEMB     55       POPC     H7R      HAL2     0.900000E-01   1.00800           0
      7354 MEMB     55       POPC     H7S      HAL2     0.900000E-01   1.00800           0
      7355 MEMB     55       POPC     C28      CTL2    -0.180000       12.0110           0
      7356 MEMB     55       POPC     H8R      HAL2     0.900000E-01   1.00800           0
      7357 MEMB     55       POPC     H8S      HAL2     0.900000E-01   1.00800           0
      7358 MEMB     55       POPC     C29      CEL1    -0.150000       12.0110           0
      7359 MEMB     55       POPC     H91      HEL1     0.150000       1.00800           0
      7360 MEMB     55       POPC     C210     CEL1    -0.150000       12.0110           0
      7361 MEMB     55       POPC     H101     HEL1     0.150000       1.00800           0
      7362 MEMB     55       POPC     C211     CTL2    -0.180000       12.0110           0
      7363 MEMB     55       POPC     H11R     HAL2     0.900000E-01   1.00800           0
      7364 MEMB     55       POPC     H11S     HAL2     0.900000E-01   1.00800           0
      7365 MEMB     55       POPC     C212     CTL2    -0.180000       12.0110           0
      7366 MEMB     55       POPC     H12R     HAL2     0.900000E-01   1.00800           0
      7367 MEMB     55       POPC     H12S     HAL2     0.900000E-01   1.00800           0
      7368 MEMB     55       POPC     C213     CTL2    -0.180000       12.0110           0
      7369 MEMB     55       POPC     H13R     HAL2     0.900000E-01   1.00800           0
      7370 MEMB     55       POPC     H13S     HAL2     0.900000E-01   1.00800           0
      7371 MEMB     55       POPC     C214     CTL2    -0.180000       12.0110           0
      7372 MEMB     55       POPC     H14R     HAL2     0.900000E-01   1.00800           0
      7373 MEMB     55       POPC     H14S     HAL2     0.900000E-01   1.00800           0
      7374 MEMB     55       POPC     C215     CTL2    -0.180000       12.0110           0
      7375 MEMB     55       POPC     H15R     HAL2     0.900000E-01   1.00800           0
      7376 MEMB     55       POPC     H15S     HAL2     0.900000E-01   1.00800           0
      7377 MEMB     55       POPC     C216     CTL2    -0.180000       12.0110           0
      7378 MEMB     55       POPC     H16R     HAL2     0.900000E-01   1.00800           0
      7379 MEMB     55       POPC     H16S     HAL2     0.900000E-01   1.00800           0
      7380 MEMB     55       POPC     C217     CTL2    -0.180000       12.0110           0
      7381 MEMB     55       POPC     H17R     HAL2     0.900000E-01   1.00800           0
      7382 MEMB     55       POPC     H17S     HAL2     0.900000E-01   1.00800           0
      7383 MEMB     55       POPC     C218     CTL3    -0.270000       12.0110           0
      7384 MEMB     55       POPC     H18R     HAL3     0.900000E-01   1.00800           0
      7385 MEMB     55       POPC     H18S     HAL3     0.900000E-01   1.00800           0
      7386 MEMB     55       POPC     H18T     HAL3     0.900000E-01   1.00800           0
      7387 MEMB     55       POPC     C33      CTL2    -0.180000       12.0110           0
      7388 MEMB     55       POPC     H3X      HAL2     0.900000E-01   1.00800           0
      7389 MEMB     55       POPC     H3Y      HAL2     0.900000E-01   1.00800           0
      7390 MEMB     55       POPC     C34      CTL2    -0.180000       12.0110           0
      7391 MEMB     55       POPC     H4X      HAL2     0.900000E-01   1.00800           0
      7392 MEMB     55       POPC     H4Y      HAL2     0.900000E-01   1.00800           0
      7393 MEMB     55       POPC     C35      CTL2    -0.180000       12.0110           0
      7394 MEMB     55       POPC     H5X      HAL2     0.900000E-01   1.00800           0
      7395 MEMB     55       POPC     H5Y      HAL2     0.900000E-01   1.00800           0
      7396 MEMB     55       POPC     C36      CTL2    -0.180000       12.0110           0
      7397 MEMB     55       POPC     H6X      HAL2     0.900000E-01   1.00800           0
      7398 MEMB     55       POPC     H6Y      HAL2     0.900000E-01   1.00800           0
      7399 MEMB     55       POPC     C37      CTL2    -0.180000       12.0110           0
      7400 MEMB     55       POPC     H7X      HAL2     0.900000E-01   1.00800           0
      7401 MEMB     55       POPC     H7Y      HAL2     0.900000E-01   1.00800           0
      7402 MEMB     55       POPC     C38      CTL2    -0.180000       12.0110           0
      7403 MEMB     55       POPC     H8X      HAL2     0.900000E-01   1.00800           0
      7404 MEMB     55       POPC     H8Y      HAL2     0.900000E-01   1.00800           0
      7405 MEMB     55       POPC     C39      CTL2    -0.180000       12.0110           0
      7406 MEMB     55       POPC     H9X      HAL2     0.900000E-01   1.00800           0
      7407 MEMB     55       POPC     H9Y      HAL2     0.900000E-01   1.00800           0
      7408 MEMB     55       POPC     C310     CTL2    -0.180000       12.0110           0
      7409 MEMB     55       POPC     H10X     HAL2     0.900000E-01   1.00800           0
      7410 MEMB     55       POPC     H10Y     HAL2     0.900000E-01   1.00800           0
      7411 MEMB     55       POPC     C311     CTL2    -0.180000       12.0110           0
      7412 MEMB     55       POPC     H11X     HAL2     0.900000E-01   1.00800           0
      7413 MEMB     55       POPC     H11Y     HAL2     0.900000E-01   1.00800           0
      7414 MEMB     55       POPC     C312     CTL2    -0.180000       12.0110           0
      7415 MEMB     55       POPC     H12X     HAL2     0.900000E-01   1.00800           0
      7416 MEMB     55       POPC     H12Y     HAL2     0.900000E-01   1.00800           0
      7417 MEMB     55       POPC     C313     CTL2    -0.180000       12.0110           0
      7418 MEMB     55       POPC     H13X     HAL2     0.900000E-01   1.00800           0
      7419 MEMB     55       POPC     H13Y     HAL2     0.900000E-01   1.00800           0
      7420 MEMB     55       POPC     C314     CTL2    -0.180000       12.0110           0
      7421 MEMB     55       POPC     H14X     HAL2     0.900000E-01   1.00800           0
      7422 MEMB     55       POPC     H14Y     HAL2     0.900000E-01   1.00800           0
      7423 MEMB     55       POPC     C315     CTL2    -0.180000       12.0110           0
      7424 MEMB     55       POPC     H15X     HAL2     0.900000E-01   1.00800           0
      7425 MEMB     55       POPC     H15Y     HAL2     0.900000E-01   1.00800           0
      7426 MEMB     55       POPC     C316     CTL3    -0.270000       12.0110           0
      7427 MEMB     55       POPC     H16X     HAL3     0.900000E-01   1.00800           0
      7428 MEMB     55       POPC     H16Y     HAL3     0.900000E-01   1.00800           0
      7429 MEMB     55       POPC     H16Z     HAL3     0.900000E-01   1.00800           0
      7430 MEMB     56       POPC     N        NTL     -0.600000       14.0070           0
      7431 MEMB     56       POPC     C12      CTL2    -0.100000       12.0110           0
      7432 MEMB     56       POPC     H12A     HL       0.250000       1.00800           0
      7433 MEMB     56       POPC     H12B     HL       0.250000       1.00800           0
      7434 MEMB     56       POPC     C13      CTL5    -0.350000       12.0110           0
      7435 MEMB     56       POPC     H13A     HL       0.250000       1.00800           0
      7436 MEMB     56       POPC     H13B     HL       0.250000       1.00800           0
      7437 MEMB     56       POPC     H13C     HL       0.250000       1.00800           0
      7438 MEMB     56       POPC     C14      CTL5    -0.350000       12.0110           0
      7439 MEMB     56       POPC     H14A     HL       0.250000       1.00800           0
      7440 MEMB     56       POPC     H14B     HL       0.250000       1.00800           0
      7441 MEMB     56       POPC     H14C     HL       0.250000       1.00800           0
      7442 MEMB     56       POPC     C15      CTL5    -0.350000       12.0110           0
      7443 MEMB     56       POPC     H15A     HL       0.250000       1.00800           0
      7444 MEMB     56       POPC     H15B     HL       0.250000       1.00800           0
      7445 MEMB     56       POPC     H15C     HL       0.250000       1.00800           0
      7446 MEMB     56       POPC     C11      CTL2    -0.800000E-01   12.0110           0
      7447 MEMB     56       POPC     H11A     HAL2     0.900000E-01   1.00800           0
      7448 MEMB     56       POPC     H11B     HAL2     0.900000E-01   1.00800           0
      7449 MEMB     56       POPC     P        PL       1.500000       30.9740           0
      7450 MEMB     56       POPC     O13      O2L     -0.780000       15.9994           0
      7451 MEMB     56       POPC     O14      O2L     -0.780000       15.9994           0
      7452 MEMB     56       POPC     O12      OSLP    -0.570000       15.9994           0
      7453 MEMB     56       POPC     O11      OSLP    -0.570000       15.9994           0
      7454 MEMB     56       POPC     C1       CTL2    -0.800000E-01   12.0110           0
      7455 MEMB     56       POPC     HA       HAL2     0.900000E-01   1.00800           0
      7456 MEMB     56       POPC     HB       HAL2     0.900000E-01   1.00800           0
      7457 MEMB     56       POPC     C2       CTL1     0.170000       12.0110           0
      7458 MEMB     56       POPC     HS       HAL1     0.900000E-01   1.00800           0
      7459 MEMB     56       POPC     O21      OSL     -0.490000       15.9994           0
      7460 MEMB     56       POPC     C21      CL       0.900000       12.0110           0
      7461 MEMB     56       POPC     O22      OBL     -0.630000       15.9994           0
      7462 MEMB     56       POPC     C22      CTL2    -0.220000       12.0110           0
      7463 MEMB     56       POPC     H2R      HAL2     0.900000E-01   1.00800           0
      7464 MEMB     56       POPC     H2S      HAL2     0.900000E-01   1.00800           0
      7465 MEMB     56       POPC     C3       CTL2     0.800000E-01   12.0110           0
      7466 MEMB     56       POPC     HX       HAL2     0.900000E-01   1.00800           0
      7467 MEMB     56       POPC     HY       HAL2     0.900000E-01   1.00800           0
      7468 MEMB     56       POPC     O31      OSL     -0.490000       15.9994           0
      7469 MEMB     56       POPC     C31      CL       0.900000       12.0110           0
      7470 MEMB     56       POPC     O32      OBL     -0.630000       15.9994           0
      7471 MEMB     56       POPC     C32      CTL2    -0.220000       12.0110           0
      7472 MEMB     56       POPC     H2X      HAL2     0.900000E-01   1.00800           0
      7473 MEMB     56       POPC     H2Y      HAL2     0.900000E-01   1.00800           0
      7474 MEMB     56       POPC     C23      CTL2    -0.180000       12.0110           0
      7475 MEMB     56       POPC     H3R      HAL2     0.900000E-01   1.00800           0
      7476 MEMB     56       POPC     H3S      HAL2     0.900000E-01   1.00800           0
      7477 MEMB     56       POPC     C24      CTL2    -0.180000       12.0110           0
      7478 MEMB     56       POPC     H4R      HAL2     0.900000E-01   1.00800           0
      7479 MEMB     56       POPC     H4S      HAL2     0.900000E-01   1.00800           0
      7480 MEMB     56       POPC     C25      CTL2    -0.180000       12.0110           0
      7481 MEMB     56       POPC     H5R      HAL2     0.900000E-01   1.00800           0
      7482 MEMB     56       POPC     H5S      HAL2     0.900000E-01   1.00800           0
      7483 MEMB     56       POPC     C26      CTL2    -0.180000       12.0110           0
      7484 MEMB     56       POPC     H6R      HAL2     0.900000E-01   1.00800           0
      7485 MEMB     56       POPC     H6S      HAL2     0.900000E-01   1.00800           0
      7486 MEMB     56       POPC     C27      CTL2    -0.180000       12.0110           0
      7487 MEMB     56       POPC     H7R      HAL2     0.900000E-01   1.00800           0
      7488 MEMB     56       POPC     H7S      HAL2     0.900000E-01   1.00800           0
      7489 MEMB     56       POPC     C28      CTL2    -0.180000       12.0110           0
      7490 MEMB     56       POPC     H8R      HAL2     0.900000E-01   1.00800           0
      7491 MEMB     56       POPC     H8S      HAL2     0.900000E-01   1.00800           0
      7492 MEMB     56       POPC     C29      CEL1    -0.150000       12.0110           0
      7493 MEMB     56       POPC     H91      HEL1     0.150000       1.00800           0
      7494 MEMB     56       POPC     C210     CEL1    -0.150000       12.0110           0
      7495 MEMB     56       POPC     H101     HEL1     0.150000       1.00800           0
      7496 MEMB     56       POPC     C211     CTL2    -0.180000       12.0110           0
      7497 MEMB     56       POPC     H11R     HAL2     0.900000E-01   1.00800           0
      7498 MEMB     56       POPC     H11S     HAL2     0.900000E-01   1.00800           0
      7499 MEMB     56       POPC     C212     CTL2    -0.180000       12.0110           0
      7500 MEMB     56       POPC     H12R     HAL2     0.900000E-01   1.00800           0
      7501 MEMB     56       POPC     H12S     HAL2     0.900000E-01   1.00800           0
      7502 MEMB     56       POPC     C213     CTL2    -0.180000       12.0110           0
      7503 MEMB     56       POPC     H13R     HAL2     0.900000E-01   1.00800           0
      7504 MEMB     56       POPC     H13S     HAL2     0.900000E-01   1.00800           0
      7505 MEMB     56       POPC     C214     CTL2    -0.180000       12.0110           0
      7506 MEMB     56       POPC     H14R     HAL2     0.900000E-01   1.00800           0
      7507 MEMB     56       POPC     H14S     HAL2     0.900000E-01   1.00800           0
      7508 MEMB     56       POPC     C215     CTL2    -0.180000       12.0110           0
      7509 MEMB     56       POPC     H15R     HAL2     0.900000E-01   1.00800           0
      7510 MEMB     56       POPC     H15S     HAL2     0.900000E-01   1.00800           0
      7511 MEMB     56       POPC     C216     CTL2    -0.180000       12.0110           0
      7512 MEMB     56       POPC     H16R     HAL2     0.900000E-01   1.00800           0
      7513 MEMB     56       POPC     H16S     HAL2     0.900000E-01   1.00800           0
      7514 MEMB     56       POPC     C217     CTL2    -0.180000       12.0110           0
      7515 MEMB     56       POPC     H17R     HAL2     0.900000E-01   1.00800           0
      7516 MEMB     56       POPC     H17S     HAL2     0.900000E-01   1.00800           0
      7517 MEMB     56       POPC     C218     CTL3    -0.270000       12.0110           0
      7518 MEMB     56       POPC     H18R     HAL3     0.900000E-01   1.00800           0
      7519 MEMB     56       POPC     H18S     HAL3     0.900000E-01   1.00800           0
      7520 MEMB     56       POPC     H18T     HAL3     0.900000E-01   1.00800           0
      7521 MEMB     56       POPC     C33      CTL2    -0.180000       12.0110           0
      7522 MEMB     56       POPC     H3X      HAL2     0.900000E-01   1.00800           0
      7523 MEMB     56       POPC     H3Y      HAL2     0.900000E-01   1.00800           0
      7524 MEMB     56       POPC     C34      CTL2    -0.180000       12.0110           0
      7525 MEMB     56       POPC     H4X      HAL2     0.900000E-01   1.00800           0
      7526 MEMB     56       POPC     H4Y      HAL2     0.900000E-01   1.00800           0
      7527 MEMB     56       POPC     C35      CTL2    -0.180000       12.0110           0
      7528 MEMB     56       POPC     H5X      HAL2     0.900000E-01   1.00800           0
      7529 MEMB     56       POPC     H5Y      HAL2     0.900000E-01   1.00800           0
      7530 MEMB     56       POPC     C36      CTL2    -0.180000       12.0110           0
      7531 MEMB     56       POPC     H6X      HAL2     0.900000E-01   1.00800           0
      7532 MEMB     56       POPC     H6Y      HAL2     0.900000E-01   1.00800           0
      7533 MEMB     56       POPC     C37      CTL2    -0.180000       12.0110           0
      7534 MEMB     56       POPC     H7X      HAL2     0.900000E-01   1.00800           0
      7535 MEMB     56       POPC     H7Y      HAL2     0.900000E-01   1.00800           0
      7536 MEMB     56       POPC     C38      CTL2    -0.180000       12.0110           0
      7537 MEMB     56       POPC     H8X      HAL2     0.900000E-01   1.00800           0
      7538 MEMB     56       POPC     H8Y      HAL2     0.900000E-01   1.00800           0
      7539 MEMB     56       POPC     C39      CTL2    -0.180000       12.0110           0
      7540 MEMB     56       POPC     H9X      HAL2     0.900000E-01   1.00800           0
      7541 MEMB     56       POPC     H9Y      HAL2     0.900000E-01   1.00800           0
      7542 MEMB     56       POPC     C310     CTL2    -0.180000       12.0110           0
      7543 MEMB     56       POPC     H10X     HAL2     0.900000E-01   1.00800           0
      7544 MEMB     56       POPC     H10Y     HAL2     0.900000E-01   1.00800           0
      7545 MEMB     56       POPC     C311     CTL2    -0.180000       12.0110           0
      7546 MEMB     56       POPC     H11X     HAL2     0.900000E-01   1.00800           0
      7547 MEMB     56       POPC     H11Y     HAL2     0.900000E-01   1.00800           0
      7548 MEMB     56       POPC     C312     CTL2    -0.180000       12.0110           0
      7549 MEMB     56       POPC     H12X     HAL2     0.900000E-01   1.00800           0
      7550 MEMB     56       POPC     H12Y     HAL2     0.900000E-01   1.00800           0
      7551 MEMB     56       POPC     C313     CTL2    -0.180000       12.0110           0
      7552 MEMB     56       POPC     H13X     HAL2     0.900000E-01   1.00800           0
      7553 MEMB     56       POPC     H13Y     HAL2     0.900000E-01   1.00800           0
      7554 MEMB     56       POPC     C314     CTL2    -0.180000       12.0110           0
      7555 MEMB     56       POPC     H14X     HAL2     0.900000E-01   1.00800           0
      7556 MEMB     56       POPC     H14Y     HAL2     0.900000E-01   1.00800           0
      7557 MEMB     56       POPC     C315     CTL2    -0.180000       12.0110           0
      7558 MEMB     56       POPC     H15X     HAL2     0.900000E-01   1.00800           0
      7559 MEMB     56       POPC     H15Y     HAL2     0.900000E-01   1.00800           0
      7560 MEMB     56       POPC     C316     CTL3    -0.270000       12.0110           0
      7561 MEMB     56       POPC     H16X     HAL3     0.900000E-01   1.00800           0
      7562 MEMB     56       POPC     H16Y     HAL3     0.900000E-01   1.00800           0
      7563 MEMB     56       POPC     H16Z     HAL3     0.900000E-01   1.00800           0
      7564 MEMB     57       POPC     N        NTL     -0.600000       14.0070           0
      7565 MEMB     57       POPC     C12      CTL2    -0.100000       12.0110           0
      7566 MEMB     57       POPC     H12A     HL       0.250000       1.00800           0
      7567 MEMB     57       POPC     H12B     HL       0.250000       1.00800           0
      7568 MEMB     57       POPC     C13      CTL5    -0.350000       12.0110           0
      7569 MEMB     57       POPC     H13A     HL       0.250000       1.00800           0
      7570 MEMB     57       POPC     H13B     HL       0.250000       1.00800           0
      7571 MEMB     57       POPC     H13C     HL       0.250000       1.00800           0
      7572 MEMB     57       POPC     C14      CTL5    -0.350000       12.0110           0
      7573 MEMB     57       POPC     H14A     HL       0.250000       1.00800           0
      7574 MEMB     57       POPC     H14B     HL       0.250000       1.00800           0
      7575 MEMB     57       POPC     H14C     HL       0.250000       1.00800           0
      7576 MEMB     57       POPC     C15      CTL5    -0.350000       12.0110           0
      7577 MEMB     57       POPC     H15A     HL       0.250000       1.00800           0
      7578 MEMB     57       POPC     H15B     HL       0.250000       1.00800           0
      7579 MEMB     57       POPC     H15C     HL       0.250000       1.00800           0
      7580 MEMB     57       POPC     C11      CTL2    -0.800000E-01   12.0110           0
      7581 MEMB     57       POPC     H11A     HAL2     0.900000E-01   1.00800           0
      7582 MEMB     57       POPC     H11B     HAL2     0.900000E-01   1.00800           0
      7583 MEMB     57       POPC     P        PL       1.500000       30.9740           0
      7584 MEMB     57       POPC     O13      O2L     -0.780000       15.9994           0
      7585 MEMB     57       POPC     O14      O2L     -0.780000       15.9994           0
      7586 MEMB     57       POPC     O12      OSLP    -0.570000       15.9994           0
      7587 MEMB     57       POPC     O11      OSLP    -0.570000       15.9994           0
      7588 MEMB     57       POPC     C1       CTL2    -0.800000E-01   12.0110           0
      7589 MEMB     57       POPC     HA       HAL2     0.900000E-01   1.00800           0
      7590 MEMB     57       POPC     HB       HAL2     0.900000E-01   1.00800           0
      7591 MEMB     57       POPC     C2       CTL1     0.170000       12.0110           0
      7592 MEMB     57       POPC     HS       HAL1     0.900000E-01   1.00800           0
      7593 MEMB     57       POPC     O21      OSL     -0.490000       15.9994           0
      7594 MEMB     57       POPC     C21      CL       0.900000       12.0110           0
      7595 MEMB     57       POPC     O22      OBL     -0.630000       15.9994           0
      7596 MEMB     57       POPC     C22      CTL2    -0.220000       12.0110           0
      7597 MEMB     57       POPC     H2R      HAL2     0.900000E-01   1.00800           0
      7598 MEMB     57       POPC     H2S      HAL2     0.900000E-01   1.00800           0
      7599 MEMB     57       POPC     C3       CTL2     0.800000E-01   12.0110           0
      7600 MEMB     57       POPC     HX       HAL2     0.900000E-01   1.00800           0
      7601 MEMB     57       POPC     HY       HAL2     0.900000E-01   1.00800           0
      7602 MEMB     57       POPC     O31      OSL     -0.490000       15.9994           0
      7603 MEMB     57       POPC     C31      CL       0.900000       12.0110           0
      7604 MEMB     57       POPC     O32      OBL     -0.630000       15.9994           0
      7605 MEMB     57       POPC     C32      CTL2    -0.220000       12.0110           0
      7606 MEMB     57       POPC     H2X      HAL2     0.900000E-01   1.00800           0
      7607 MEMB     57       POPC     H2Y      HAL2     0.900000E-01   1.00800           0
      7608 MEMB     57       POPC     C23      CTL2    -0.180000       12.0110           0
      7609 MEMB     57       POPC     H3R      HAL2     0.900000E-01   1.00800           0
      7610 MEMB     57       POPC     H3S      HAL2     0.900000E-01   1.00800           0
      7611 MEMB     57       POPC     C24      CTL2    -0.180000       12.0110           0
      7612 MEMB     57       POPC     H4R      HAL2     0.900000E-01   1.00800           0
      7613 MEMB     57       POPC     H4S      HAL2     0.900000E-01   1.00800           0
      7614 MEMB     57       POPC     C25      CTL2    -0.180000       12.0110           0
      7615 MEMB     57       POPC     H5R      HAL2     0.900000E-01   1.00800           0
      7616 MEMB     57       POPC     H5S      HAL2     0.900000E-01   1.00800           0
      7617 MEMB     57       POPC     C26      CTL2    -0.180000       12.0110           0
      7618 MEMB     57       POPC     H6R      HAL2     0.900000E-01   1.00800           0
      7619 MEMB     57       POPC     H6S      HAL2     0.900000E-01   1.00800           0
      7620 MEMB     57       POPC     C27      CTL2    -0.180000       12.0110           0
      7621 MEMB     57       POPC     H7R      HAL2     0.900000E-01   1.00800           0
      7622 MEMB     57       POPC     H7S      HAL2     0.900000E-01   1.00800           0
      7623 MEMB     57       POPC     C28      CTL2    -0.180000       12.0110           0
      7624 MEMB     57       POPC     H8R      HAL2     0.900000E-01   1.00800           0
      7625 MEMB     57       POPC     H8S      HAL2     0.900000E-01   1.00800           0
      7626 MEMB     57       POPC     C29      CEL1    -0.150000       12.0110           0
      7627 MEMB     57       POPC     H91      HEL1     0.150000       1.00800           0
      7628 MEMB     57       POPC     C210     CEL1    -0.150000       12.0110           0
      7629 MEMB     57       POPC     H101     HEL1     0.150000       1.00800           0
      7630 MEMB     57       POPC     C211     CTL2    -0.180000       12.0110           0
      7631 MEMB     57       POPC     H11R     HAL2     0.900000E-01   1.00800           0
      7632 MEMB     57       POPC     H11S     HAL2     0.900000E-01   1.00800           0
      7633 MEMB     57       POPC     C212     CTL2    -0.180000       12.0110           0
      7634 MEMB     57       POPC     H12R     HAL2     0.900000E-01   1.00800           0
      7635 MEMB     57       POPC     H12S     HAL2     0.900000E-01   1.00800           0
      7636 MEMB     57       POPC     C213     CTL2    -0.180000       12.0110           0
      7637 MEMB     57       POPC     H13R     HAL2     0.900000E-01   1.00800           0
      7638 MEMB     57       POPC     H13S     HAL2     0.900000E-01   1.00800           0
      7639 MEMB     57       POPC     C214     CTL2    -0.180000       12.0110           0
      7640 MEMB     57       POPC     H14R     HAL2     0.900000E-01   1.00800           0
      7641 MEMB     57       POPC     H14S     HAL2     0.900000E-01   1.00800           0
      7642 MEMB     57       POPC     C215     CTL2    -0.180000       12.0110           0
      7643 MEMB     57       POPC     H15R     HAL2     0.900000E-01   1.00800           0
      7644 MEMB     57       POPC     H15S     HAL2     0.900000E-01   1.00800           0
      7645 MEMB     57       POPC     C216     CTL2    -0.180000       12.0110           0
      7646 MEMB     57       POPC     H16R     HAL2     0.900000E-01   1.00800           0
      7647 MEMB     57       POPC     H16S     HAL2     0.900000E-01   1.00800           0
      7648 MEMB     57       POPC     C217     CTL2    -0.180000       12.0110           0
      7649 MEMB     57       POPC     H17R     HAL2     0.900000E-01   1.00800           0
      7650 MEMB     57       POPC     H17S     HAL2     0.900000E-01   1.00800           0
      7651 MEMB     57       POPC     C218     CTL3    -0.270000       12.0110           0
      7652 MEMB     57       POPC     H18R     HAL3     0.900000E-01   1.00800           0
      7653 MEMB     57       POPC     H18S     HAL3     0.900000E-01   1.00800           0
      7654 MEMB     57       POPC     H18T     HAL3     0.900000E-01   1.00800           0
      7655 MEMB     57       POPC     C33      CTL2    -0.180000       12.0110           0
      7656 MEMB     57       POPC     H3X      HAL2     0.900000E-01   1.00800           0
      7657 MEMB     57       POPC     H3Y      HAL2     0.900000E-01   1.00800           0
      7658 MEMB     57       POPC     C34      CTL2    -0.180000       12.0110           0
      7659 MEMB     57       POPC     H4X      HAL2     0.900000E-01   1.00800           0
      7660 MEMB     57       POPC     H4Y      HAL2     0.900000E-01   1.00800           0
      7661 MEMB     57       POPC     C35      CTL2    -0.180000       12.0110           0
      7662 MEMB     57       POPC     H5X      HAL2     0.900000E-01   1.00800           0
      7663 MEMB     57       POPC     H5Y      HAL2     0.900000E-01   1.00800           0
      7664 MEMB     57       POPC     C36      CTL2    -0.180000       12.0110           0
      7665 MEMB     57       POPC     H6X      HAL2     0.900000E-01   1.00800           0
      7666 MEMB     57       POPC     H6Y      HAL2     0.900000E-01   1.00800           0
      7667 MEMB     57       POPC     C37      CTL2    -0.180000       12.0110           0
      7668 MEMB     57       POPC     H7X      HAL2     0.900000E-01   1.00800           0
      7669 MEMB     57       POPC     H7Y      HAL2     0.900000E-01   1.00800           0
      7670 MEMB     57       POPC     C38      CTL2    -0.180000       12.0110           0
      7671 MEMB     57       POPC     H8X      HAL2     0.900000E-01   1.00800           0
      7672 MEMB     57       POPC     H8Y      HAL2     0.900000E-01   1.00800           0
      7673 MEMB     57       POPC     C39      CTL2    -0.180000       12.0110           0
      7674 MEMB     57       POPC     H9X      HAL2     0.900000E-01   1.00800           0
      7675 MEMB     57       POPC     H9Y      HAL2     0.900000E-01   1.00800           0
      7676 MEMB     57       POPC     C310     CTL2    -0.180000       12.0110           0
      7677 MEMB     57       POPC     H10X     HAL2     0.900000E-01   1.00800           0
      7678 MEMB     57       POPC     H10Y     HAL2     0.900000E-01   1.00800           0
      7679 MEMB     57       POPC     C311     CTL2    -0.180000       12.0110           0
      7680 MEMB     57       POPC     H11X     HAL2     0.900000E-01   1.00800           0
      7681 MEMB     57       POPC     H11Y     HAL2     0.900000E-01   1.00800           0
      7682 MEMB     57       POPC     C312     CTL2    -0.180000       12.0110           0
      7683 MEMB     57       POPC     H12X     HAL2     0.900000E-01   1.00800           0
      7684 MEMB     57       POPC     H12Y     HAL2     0.900000E-01   1.00800           0
      7685 MEMB     57       POPC     C313     CTL2    -0.180000       12.0110           0
      7686 MEMB     57       POPC     H13X     HAL2     0.900000E-01   1.00800           0
      7687 MEMB     57       POPC     H13Y     HAL2     0.900000E-01   1.00800           0
      7688 MEMB     57       POPC     C314     CTL2    -0.180000       12.0110           0
      7689 MEMB     57       POPC     H14X     HAL2     0.900000E-01   1.00800           0
      7690 MEMB     57       POPC     H14Y     HAL2     0.900000E-01   1.00800           0
      7691 MEMB     57       POPC     C315     CTL2    -0.180000       12.0110           0
      7692 MEMB     57       POPC     H15X     HAL2     0.900000E-01   1.00800           0
      7693 MEMB     57       POPC     H15Y     HAL2     0.900000E-01   1.00800           0
      7694 MEMB     57       POPC     C316     CTL3    -0.270000       12.0110           0
      7695 MEMB     57       POPC     H16X     HAL3     0.900000E-01   1.00800           0
      7696 MEMB     57       POPC     H16Y     HAL3     0.900000E-01   1.00800           0
      7697 MEMB     57       POPC     H16Z     HAL3     0.900000E-01   1.00800           0
      7698 MEMB     58       POPC     N        NTL     -0.600000       14.0070           0
      7699 MEMB     58       POPC     C12      CTL2    -0.100000       12.0110           0
      7700 MEMB     58       POPC     H12A     HL       0.250000       1.00800           0
      7701 MEMB     58       POPC     H12B     HL       0.250000       1.00800           0
      7702 MEMB     58       POPC     C13      CTL5    -0.350000       12.0110           0
      7703 MEMB     58       POPC     H13A     HL       0.250000       1.00800           0
      7704 MEMB     58       POPC     H13B     HL       0.250000       1.00800           0
      7705 MEMB     58       POPC     H13C     HL       0.250000       1.00800           0
      7706 MEMB     58       POPC     C14      CTL5    -0.350000       12.0110           0
      7707 MEMB     58       POPC     H14A     HL       0.250000       1.00800           0
      7708 MEMB     58       POPC     H14B     HL       0.250000       1.00800           0
      7709 MEMB     58       POPC     H14C     HL       0.250000       1.00800           0
      7710 MEMB     58       POPC     C15      CTL5    -0.350000       12.0110           0
      7711 MEMB     58       POPC     H15A     HL       0.250000       1.00800           0
      7712 MEMB     58       POPC     H15B     HL       0.250000       1.00800           0
      7713 MEMB     58       POPC     H15C     HL       0.250000       1.00800           0
      7714 MEMB     58       POPC     C11      CTL2    -0.800000E-01   12.0110           0
      7715 MEMB     58       POPC     H11A     HAL2     0.900000E-01   1.00800           0
      7716 MEMB     58       POPC     H11B     HAL2     0.900000E-01   1.00800           0
      7717 MEMB     58       POPC     P        PL       1.500000       30.9740           0
      7718 MEMB     58       POPC     O13      O2L     -0.780000       15.9994           0
      7719 MEMB     58       POPC     O14      O2L     -0.780000       15.9994           0
      7720 MEMB     58       POPC     O12      OSLP    -0.570000       15.9994           0
      7721 MEMB     58       POPC     O11      OSLP    -0.570000       15.9994           0
      7722 MEMB     58       POPC     C1       CTL2    -0.800000E-01   12.0110           0
      7723 MEMB     58       POPC     HA       HAL2     0.900000E-01   1.00800           0
      7724 MEMB     58       POPC     HB       HAL2     0.900000E-01   1.00800           0
      7725 MEMB     58       POPC     C2       CTL1     0.170000       12.0110           0
      7726 MEMB     58       POPC     HS       HAL1     0.900000E-01   1.00800           0
      7727 MEMB     58       POPC     O21      OSL     -0.490000       15.9994           0
      7728 MEMB     58       POPC     C21      CL       0.900000       12.0110           0
      7729 MEMB     58       POPC     O22      OBL     -0.630000       15.9994           0
      7730 MEMB     58       POPC     C22      CTL2    -0.220000       12.0110           0
      7731 MEMB     58       POPC     H2R      HAL2     0.900000E-01   1.00800           0
      7732 MEMB     58       POPC     H2S      HAL2     0.900000E-01   1.00800           0
      7733 MEMB     58       POPC     C3       CTL2     0.800000E-01   12.0110           0
      7734 MEMB     58       POPC     HX       HAL2     0.900000E-01   1.00800           0
      7735 MEMB     58       POPC     HY       HAL2     0.900000E-01   1.00800           0
      7736 MEMB     58       POPC     O31      OSL     -0.490000       15.9994           0
      7737 MEMB     58       POPC     C31      CL       0.900000       12.0110           0
      7738 MEMB     58       POPC     O32      OBL     -0.630000       15.9994           0
      7739 MEMB     58       POPC     C32      CTL2    -0.220000       12.0110           0
      7740 MEMB     58       POPC     H2X      HAL2     0.900000E-01   1.00800           0
      7741 MEMB     58       POPC     H2Y      HAL2     0.900000E-01   1.00800           0
      7742 MEMB     58       POPC     C23      CTL2    -0.180000       12.0110           0
      7743 MEMB     58       POPC     H3R      HAL2     0.900000E-01   1.00800           0
      7744 MEMB     58       POPC     H3S      HAL2     0.900000E-01   1.00800           0
      7745 MEMB     58       POPC     C24      CTL2    -0.180000       12.0110           0
      7746 MEMB     58       POPC     H4R      HAL2     0.900000E-01   1.00800           0
      7747 MEMB     58       POPC     H4S      HAL2     0.900000E-01   1.00800           0
      7748 MEMB     58       POPC     C25      CTL2    -0.180000       12.0110           0
      7749 MEMB     58       POPC     H5R      HAL2     0.900000E-01   1.00800           0
      7750 MEMB     58       POPC     H5S      HAL2     0.900000E-01   1.00800           0
      7751 MEMB     58       POPC     C26      CTL2    -0.180000       12.0110           0
      7752 MEMB     58       POPC     H6R      HAL2     0.900000E-01   1.00800           0
      7753 MEMB     58       POPC     H6S      HAL2     0.900000E-01   1.00800           0
      7754 MEMB     58       POPC     C27      CTL2    -0.180000       12.0110           0
      7755 MEMB     58       POPC     H7R      HAL2     0.900000E-01   1.00800           0
      7756 MEMB     58       POPC     H7S      HAL2     0.900000E-01   1.00800           0
      7757 MEMB     58       POPC     C28      CTL2    -0.180000       12.0110           0
      7758 MEMB     58       POPC     H8R      HAL2     0.900000E-01   1.00800           0
      7759 MEMB     58       POPC     H8S      HAL2     0.900000E-01   1.00800           0
      7760 MEMB     58       POPC     C29      CEL1    -0.150000       12.0110           0
      7761 MEMB     58       POPC     H91      HEL1     0.150000       1.00800           0
      7762 MEMB     58       POPC     C210     CEL1    -0.150000       12.0110           0
      7763 MEMB     58       POPC     H101     HEL1     0.150000       1.00800           0
      7764 MEMB     58       POPC     C211     CTL2    -0.180000       12.0110           0
      7765 MEMB     58       POPC     H11R     HAL2     0.900000E-01   1.00800           0
      7766 MEMB     58       POPC     H11S     HAL2     0.900000E-01   1.00800           0
      7767 MEMB     58       POPC     C212     CTL2    -0.180000       12.0110           0
      7768 MEMB     58       POPC     H12R     HAL2     0.900000E-01   1.00800           0
      7769 MEMB     58       POPC     H12S     HAL2     0.900000E-01   1.00800           0
      7770 MEMB     58       POPC     C213     CTL2    -0.180000       12.0110           0
      7771 MEMB     58       POPC     H13R     HAL2     0.900000E-01   1.00800           0
      7772 MEMB     58       POPC     H13S     HAL2     0.900000E-01   1.00800           0
      7773 MEMB     58       POPC     C214     CTL2    -0.180000       12.0110           0
      7774 MEMB     58       POPC     H14R     HAL2     0.900000E-01   1.00800           0
      7775 MEMB     58       POPC     H14S     HAL2     0.900000E-01   1.00800           0
      7776 MEMB     58       POPC     C215     CTL2    -0.180000       12.0110           0
      7777 MEMB     58       POPC     H15R     HAL2     0.900000E-01   1.00800           0
      7778 MEMB     58       POPC     H15S     HAL2     0.900000E-01   1.00800           0
      7779 MEMB     58       POPC     C216     CTL2    -0.180000       12.0110           0
      7780 MEMB     58       POPC     H16R     HAL2     0.900000E-01   1.00800           0
      7781 MEMB     58       POPC     H16S     HAL2     0.900000E-01   1.00800           0
      7782 MEMB     58       POPC     C217     CTL2    -0.180000       12.0110           0
      7783 MEMB     58       POPC     H17R     HAL2     0.900000E-01   1.00800           0
      7784 MEMB     58       POPC     H17S     HAL2     0.900000E-01   1.00800           0
      7785 MEMB     58       POPC     C218     CTL3    -0.270000       12.0110           0
      7786 MEMB     58       POPC     H18R     HAL3     0.900000E-01   1.00800           0
      7787 MEMB     58       POPC     H18S     HAL3     0.900000E-01   1.00800           0
      7788 MEMB     58       POPC     H18T     HAL3     0.900000E-01   1.00800           0
      7789 MEMB     58       POPC     C33      CTL2    -0.180000       12.0110           0
      7790 MEMB     58       POPC     H3X      HAL2     0.900000E-01   1.00800           0
      7791 MEMB     58       POPC     H3Y      HAL2     0.900000E-01   1.00800           0
      7792 MEMB     58       POPC     C34      CTL2    -0.180000       12.0110           0
      7793 MEMB     58       POPC     H4X      HAL2     0.900000E-01   1.00800           0
      7794 MEMB     58       POPC     H4Y      HAL2     0.900000E-01   1.00800           0
      7795 MEMB     58       POPC     C35      CTL2    -0.180000       12.0110           0
      7796 MEMB     58       POPC     H5X      HAL2     0.900000E-01   1.00800           0
      7797 MEMB     58       POPC     H5Y      HAL2     0.900000E-01   1.00800           0
      7798 MEMB     58       POPC     C36      CTL2    -0.180000       12.0110           0
      7799 MEMB     58       POPC     H6X      HAL2     0.900000E-01   1.00800           0
      7800 MEMB     58       POPC     H6Y      HAL2     0.900000E-01   1.00800           0
      7801 MEMB     58       POPC     C37      CTL2    -0.180000       12.0110           0
      7802 MEMB     58       POPC     H7X      HAL2     0.900000E-01   1.00800           0
      7803 MEMB     58       POPC     H7Y      HAL2     0.900000E-01   1.00800           0
      7804 MEMB     58       POPC     C38      CTL2    -0.180000       12.0110           0
      7805 MEMB     58       POPC     H8X      HAL2     0.900000E-01   1.00800           0
      7806 MEMB     58       POPC     H8Y      HAL2     0.900000E-01   1.00800           0
      7807 MEMB     58       POPC     C39      CTL2    -0.180000       12.0110           0
      7808 MEMB     58       POPC     H9X      HAL2     0.900000E-01   1.00800           0
      7809 MEMB     58       POPC     H9Y      HAL2     0.900000E-01   1.00800           0
      7810 MEMB     58       POPC     C310     CTL2    -0.180000       12.0110           0
      7811 MEMB     58       POPC     H10X     HAL2     0.900000E-01   1.00800           0
      7812 MEMB     58       POPC     H10Y     HAL2     0.900000E-01   1.00800           0
      7813 MEMB     58       POPC     C311     CTL2    -0.180000       12.0110           0
      7814 MEMB     58       POPC     H11X     HAL2     0.900000E-01   1.00800           0
      7815 MEMB     58       POPC     H11Y     HAL2     0.900000E-01   1.00800           0
      7816 MEMB     58       POPC     C312     CTL2    -0.180000       12.0110           0
      7817 MEMB     58       POPC     H12X     HAL2     0.900000E-01   1.00800           0
      7818 MEMB     58       POPC     H12Y     HAL2     0.900000E-01   1.00800           0
      7819 MEMB     58       POPC     C313     CTL2    -0.180000       12.0110           0
      7820 MEMB     58       POPC     H13X     HAL2     0.900000E-01   1.00800           0
      7821 MEMB     58       POPC     H13Y     HAL2     0.900000E-01   1.00800           0
      7822 MEMB     58       POPC     C314     CTL2    -0.180000       12.0110           0
      7823 MEMB     58       POPC     H14X     HAL2     0.900000E-01   1.00800           0
      7824 MEMB     58       POPC     H14Y     HAL2     0.900000E-01   1.00800           0
      7825 MEMB     58       POPC     C315     CTL2    -0.180000       12.0110           0
      7826 MEMB     58       POPC     H15X     HAL2     0.900000E-01   1.00800           0
      7827 MEMB     58       POPC     H15Y     HAL2     0.900000E-01   1.00800           0
      7828 MEMB     58       POPC     C316     CTL3    -0.270000       12.0110           0
      7829 MEMB     58       POPC     H16X     HAL3     0.900000E-01   1.00800           0
      7830 MEMB     58       POPC     H16Y     HAL3     0.900000E-01   1.00800           0
      7831 MEMB     58       POPC     H16Z     HAL3     0.900000E-01   1.00800           0
      7832 MEMB     59       POPC     N        NTL     -0.600000       14.0070           0
      7833 MEMB     59       POPC     C12      CTL2    -0.100000       12.0110           0
      7834 MEMB     59       POPC     H12A     HL       0.250000       1.00800           0
      7835 MEMB     59       POPC     H12B     HL       0.250000       1.00800           0
      7836 MEMB     59       POPC     C13      CTL5    -0.350000       12.0110           0
      7837 MEMB     59       POPC     H13A     HL       0.250000       1.00800           0
      7838 MEMB     59       POPC     H13B     HL       0.250000       1.00800           0
      7839 MEMB     59       POPC     H13C     HL       0.250000       1.00800           0
      7840 MEMB     59       POPC     C14      CTL5    -0.350000       12.0110           0
      7841 MEMB     59       POPC     H14A     HL       0.250000       1.00800           0
      7842 MEMB     59       POPC     H14B     HL       0.250000       1.00800           0
      7843 MEMB     59       POPC     H14C     HL       0.250000       1.00800           0
      7844 MEMB     59       POPC     C15      CTL5    -0.350000       12.0110           0
      7845 MEMB     59       POPC     H15A     HL       0.250000       1.00800           0
      7846 MEMB     59       POPC     H15B     HL       0.250000       1.00800           0
      7847 MEMB     59       POPC     H15C     HL       0.250000       1.00800           0
      7848 MEMB     59       POPC     C11      CTL2    -0.800000E-01   12.0110           0
      7849 MEMB     59       POPC     H11A     HAL2     0.900000E-01   1.00800           0
      7850 MEMB     59       POPC     H11B     HAL2     0.900000E-01   1.00800           0
      7851 MEMB     59       POPC     P        PL       1.500000       30.9740           0
      7852 MEMB     59       POPC     O13      O2L     -0.780000       15.9994           0
      7853 MEMB     59       POPC     O14      O2L     -0.780000       15.9994           0
      7854 MEMB     59       POPC     O12      OSLP    -0.570000       15.9994           0
      7855 MEMB     59       POPC     O11      OSLP    -0.570000       15.9994           0
      7856 MEMB     59       POPC     C1       CTL2    -0.800000E-01   12.0110           0
      7857 MEMB     59       POPC     HA       HAL2     0.900000E-01   1.00800           0
      7858 MEMB     59       POPC     HB       HAL2     0.900000E-01   1.00800           0
      7859 MEMB     59       POPC     C2       CTL1     0.170000       12.0110           0
      7860 MEMB     59       POPC     HS       HAL1     0.900000E-01   1.00800           0
      7861 MEMB     59       POPC     O21      OSL     -0.490000       15.9994           0
      7862 MEMB     59       POPC     C21      CL       0.900000       12.0110           0
      7863 MEMB     59       POPC     O22      OBL     -0.630000       15.9994           0
      7864 MEMB     59       POPC     C22      CTL2    -0.220000       12.0110           0
      7865 MEMB     59       POPC     H2R      HAL2     0.900000E-01   1.00800           0
      7866 MEMB     59       POPC     H2S      HAL2     0.900000E-01   1.00800           0
      7867 MEMB     59       POPC     C3       CTL2     0.800000E-01   12.0110           0
      7868 MEMB     59       POPC     HX       HAL2     0.900000E-01   1.00800           0
      7869 MEMB     59       POPC     HY       HAL2     0.900000E-01   1.00800           0
      7870 MEMB     59       POPC     O31      OSL     -0.490000       15.9994           0
      7871 MEMB     59       POPC     C31      CL       0.900000       12.0110           0
      7872 MEMB     59       POPC     O32      OBL     -0.630000       15.9994           0
      7873 MEMB     59       POPC     C32      CTL2    -0.220000       12.0110           0
      7874 MEMB     59       POPC     H2X      HAL2     0.900000E-01   1.00800           0
      7875 MEMB     59       POPC     H2Y      HAL2     0.900000E-01   1.00800           0
      7876 MEMB     59       POPC     C23      CTL2    -0.180000       12.0110           0
      7877 MEMB     59       POPC     H3R      HAL2     0.900000E-01   1.00800           0
      7878 MEMB     59       POPC     H3S      HAL2     0.900000E-01   1.00800           0
      7879 MEMB     59       POPC     C24      CTL2    -0.180000       12.0110           0
      7880 MEMB     59       POPC     H4R      HAL2     0.900000E-01   1.00800           0
      7881 MEMB     59       POPC     H4S      HAL2     0.900000E-01   1.00800           0
      7882 MEMB     59       POPC     C25      CTL2    -0.180000       12.0110           0
      7883 MEMB     59       POPC     H5R      HAL2     0.900000E-01   1.00800           0
      7884 MEMB     59       POPC     H5S      HAL2     0.900000E-01   1.00800           0
      7885 MEMB     59       POPC     C26      CTL2    -0.180000       12.0110           0
      7886 MEMB     59       POPC     H6R      HAL2     0.900000E-01   1.00800           0
      7887 MEMB     59       POPC     H6S      HAL2     0.900000E-01   1.00800           0
      7888 MEMB     59       POPC     C27      CTL2    -0.180000       12.0110           0
      7889 MEMB     59       POPC     H7R      HAL2     0.900000E-01   1.00800           0
      7890 MEMB     59       POPC     H7S      HAL2     0.900000E-01   1.00800           0
      7891 MEMB     59       POPC     C28      CTL2    -0.180000       12.0110           0
      7892 MEMB     59       POPC     H8R      HAL2     0.900000E-01   1.00800           0
      7893 MEMB     59       POPC     H8S      HAL2     0.900000E-01   1.00800           0
      7894 MEMB     59       POPC     C29      CEL1    -0.150000       12.0110           0
      7895 MEMB     59       POPC     H91      HEL1     0.150000       1.00800           0
      7896 MEMB     59       POPC     C210     CEL1    -0.150000       12.0110           0
      7897 MEMB     59       POPC     H101     HEL1     0.150000       1.00800           0
      7898 MEMB     59       POPC     C211     CTL2    -0.180000       12.0110           0
      7899 MEMB     59       POPC     H11R     HAL2     0.900000E-01   1.00800           0
      7900 MEMB     59       POPC     H11S     HAL2     0.900000E-01   1.00800           0
      7901 MEMB     59       POPC     C212     CTL2    -0.180000       12.0110           0
      7902 MEMB     59       POPC     H12R     HAL2     0.900000E-01   1.00800           0
      7903 MEMB     59       POPC     H12S     HAL2     0.900000E-01   1.00800           0
      7904 MEMB     59       POPC     C213     CTL2    -0.180000       12.0110           0
      7905 MEMB     59       POPC     H13R     HAL2     0.900000E-01   1.00800           0
      7906 MEMB     59       POPC     H13S     HAL2     0.900000E-01   1.00800           0
      7907 MEMB     59       POPC     C214     CTL2    -0.180000       12.0110           0
      7908 MEMB     59       POPC     H14R     HAL2     0.900000E-01   1.00800           0
      7909 MEMB     59       POPC     H14S     HAL2     0.900000E-01   1.00800           0
      7910 MEMB     59       POPC     C215     CTL2    -0.180000       12.0110           0
      7911 MEMB     59       POPC     H15R     HAL2     0.900000E-01   1.00800           0
      7912 MEMB     59       POPC     H15S     HAL2     0.900000E-01   1.00800           0
      7913 MEMB     59       POPC     C216     CTL2    -0.180000       12.0110           0
      7914 MEMB     59       POPC     H16R     HAL2     0.900000E-01   1.00800           0
      7915 MEMB     59       POPC     H16S     HAL2     0.900000E-01   1.00800           0
      7916 MEMB     59       POPC     C217     CTL2    -0.180000       12.0110           0
      7917 MEMB     59       POPC     H17R     HAL2     0.900000E-01   1.00800           0
      7918 MEMB     59       POPC     H17S     HAL2     0.900000E-01   1.00800           0
      7919 MEMB     59       POPC     C218     CTL3    -0.270000       12.0110           0
      7920 MEMB     59       POPC     H18R     HAL3     0.900000E-01   1.00800           0
      7921 MEMB     59       POPC     H18S     HAL3     0.900000E-01   1.00800           0
      7922 MEMB     59       POPC     H18T     HAL3     0.900000E-01   1.00800           0
      7923 MEMB     59       POPC     C33      CTL2    -0.180000       12.0110           0
      7924 MEMB     59       POPC     H3X      HAL2     0.900000E-01   1.00800           0
      7925 MEMB     59       POPC     H3Y      HAL2     0.900000E-01   1.00800           0
      7926 MEMB     59       POPC     C34      CTL2    -0.180000       12.0110           0
      7927 MEMB     59       POPC     H4X      HAL2     0.900000E-01   1.00800           0
      7928 MEMB     59       POPC     H4Y      HAL2     0.900000E-01   1.00800           0
      7929 MEMB     59       POPC     C35      CTL2    -0.180000       12.0110           0
      7930 MEMB     59       POPC     H5X      HAL2     0.900000E-01   1.00800           0
      7931 MEMB     59       POPC     H5Y      HAL2     0.900000E-01   1.00800           0
      7932 MEMB     59       POPC     C36      CTL2    -0.180000       12.0110           0
      7933 MEMB     59       POPC     H6X      HAL2     0.900000E-01   1.00800           0
      7934 MEMB     59       POPC     H6Y      HAL2     0.900000E-01   1.00800           0
      7935 MEMB     59       POPC     C37      CTL2    -0.180000       12.0110           0
      7936 MEMB     59       POPC     H7X      HAL2     0.900000E-01   1.00800           0
      7937 MEMB     59       POPC     H7Y      HAL2     0.900000E-01   1.00800           0
      7938 MEMB     59       POPC     C38      CTL2    -0.180000       12.0110           0
      7939 MEMB     59       POPC     H8X      HAL2     0.900000E-01   1.00800           0
      7940 MEMB     59       POPC     H8Y      HAL2     0.900000E-01   1.00800           0
      7941 MEMB     59       POPC     C39      CTL2    -0.180000       12.0110           0
      7942 MEMB     59       POPC     H9X      HAL2     0.900000E-01   1.00800           0
      7943 MEMB     59       POPC     H9Y      HAL2     0.900000E-01   1.00800           0
      7944 MEMB     59       POPC     C310     CTL2    -0.180000       12.0110           0
      7945 MEMB     59       POPC     H10X     HAL2     0.900000E-01   1.00800           0
      7946 MEMB     59       POPC     H10Y     HAL2     0.900000E-01   1.00800           0
      7947 MEMB     59       POPC     C311     CTL2    -0.180000       12.0110           0
      7948 MEMB     59       POPC     H11X     HAL2     0.900000E-01   1.00800           0
      7949 MEMB     59       POPC     H11Y     HAL2     0.900000E-01   1.00800           0
      7950 MEMB     59       POPC     C312     CTL2    -0.180000       12.0110           0
      7951 MEMB     59       POPC     H12X     HAL2     0.900000E-01   1.00800           0
      7952 MEMB     59       POPC     H12Y     HAL2     0.900000E-01   1.00800           0
      7953 MEMB     59       POPC     C313     CTL2    -0.180000       12.0110           0
      7954 MEMB     59       POPC     H13X     HAL2     0.900000E-01   1.00800           0
      7955 MEMB     59       POPC     H13Y     HAL2     0.900000E-01   1.00800           0
      7956 MEMB     59       POPC     C314     CTL2    -0.180000       12.0110           0
      7957 MEMB     59       POPC     H14X     HAL2     0.900000E-01   1.00800           0
      7958 MEMB     59       POPC     H14Y     HAL2     0.900000E-01   1.00800           0
      7959 MEMB     59       POPC     C315     CTL2    -0.180000       12.0110           0
      7960 MEMB     59       POPC     H15X     HAL2     0.900000E-01   1.00800           0
      7961 MEMB     59       POPC     H15Y     HAL2     0.900000E-01   1.00800           0
      7962 MEMB     59       POPC     C316     CTL3    -0.270000       12.0110           0
      7963 MEMB     59       POPC     H16X     HAL3     0.900000E-01   1.00800           0
      7964 MEMB     59       POPC     H16Y     HAL3     0.900000E-01   1.00800           0
      7965 MEMB     59       POPC     H16Z     HAL3     0.900000E-01   1.00800           0
      7966 MEMB     60       POPC     N        NTL     -0.600000       14.0070           0
      7967 MEMB     60       POPC     C12      CTL2    -0.100000       12.0110           0
      7968 MEMB     60       POPC     H12A     HL       0.250000       1.00800           0
      7969 MEMB     60       POPC     H12B     HL       0.250000       1.00800           0
      7970 MEMB     60       POPC     C13      CTL5    -0.350000       12.0110           0
      7971 MEMB     60       POPC     H13A     HL       0.250000       1.00800           0
      7972 MEMB     60       POPC     H13B     HL       0.250000       1.00800           0
      7973 MEMB     60       POPC     H13C     HL       0.250000       1.00800           0
      7974 MEMB     60       POPC     C14      CTL5    -0.350000       12.0110           0
      7975 MEMB     60       POPC     H14A     HL       0.250000       1.00800           0
      7976 MEMB     60       POPC     H14B     HL       0.250000       1.00800           0
      7977 MEMB     60       POPC     H14C     HL       0.250000       1.00800           0
      7978 MEMB     60       POPC     C15      CTL5    -0.350000       12.0110           0
      7979 MEMB     60       POPC     H15A     HL       0.250000       1.00800           0
      7980 MEMB     60       POPC     H15B     HL       0.250000       1.00800           0
      7981 MEMB     60       POPC     H15C     HL       0.250000       1.00800           0
      7982 MEMB     60       POPC     C11      CTL2    -0.800000E-01   12.0110           0
      7983 MEMB     60       POPC     H11A     HAL2     0.900000E-01   1.00800           0
      7984 MEMB     60       POPC     H11B     HAL2     0.900000E-01   1.00800           0
      7985 MEMB     60       POPC     P        PL       1.500000       30.9740           0
      7986 MEMB     60       POPC     O13      O2L     -0.780000       15.9994           0
      7987 MEMB     60       POPC     O14      O2L     -0.780000       15.9994           0
      7988 MEMB     60       POPC     O12      OSLP    -0.570000       15.9994           0
      7989 MEMB     60       POPC     O11      OSLP    -0.570000       15.9994           0
      7990 MEMB     60       POPC     C1       CTL2    -0.800000E-01   12.0110           0
      7991 MEMB     60       POPC     HA       HAL2     0.900000E-01   1.00800           0
      7992 MEMB     60       POPC     HB       HAL2     0.900000E-01   1.00800           0
      7993 MEMB     60       POPC     C2       CTL1     0.170000       12.0110           0
      7994 MEMB     60       POPC     HS       HAL1     0.900000E-01   1.00800           0
      7995 MEMB     60       POPC     O21      OSL     -0.490000       15.9994           0
      7996 MEMB     60       POPC     C21      CL       0.900000       12.0110           0
      7997 MEMB     60       POPC     O22      OBL     -0.630000       15.9994           0
      7998 MEMB     60       POPC     C22      CTL2    -0.220000       12.0110           0
      7999 MEMB     60       POPC     H2R      HAL2     0.900000E-01   1.00800           0
      8000 MEMB     60       POPC     H2S      HAL2     0.900000E-01   1.00800           0
      8001 MEMB     60       POPC     C3       CTL2     0.800000E-01   12.0110           0
      8002 MEMB     60       POPC     HX       HAL2     0.900000E-01   1.00800           0
      8003 MEMB     60       POPC     HY       HAL2     0.900000E-01   1.00800           0
      8004 MEMB     60       POPC     O31      OSL     -0.490000       15.9994           0
      8005 MEMB     60       POPC     C31      CL       0.900000       12.0110           0
      8006 MEMB     60       POPC     O32      OBL     -0.630000       15.9994           0
      8007 MEMB     60       POPC     C32      CTL2    -0.220000       12.0110           0
      8008 MEMB     60       POPC     H2X      HAL2     0.900000E-01   1.00800           0
      8009 MEMB     60       POPC     H2Y      HAL2     0.900000E-01   1.00800           0
      8010 MEMB     60       POPC     C23      CTL2    -0.180000       12.0110           0
      8011 MEMB     60       POPC     H3R      HAL2     0.900000E-01   1.00800           0
      8012 MEMB     60       POPC     H3S      HAL2     0.900000E-01   1.00800           0
      8013 MEMB     60       POPC     C24      CTL2    -0.180000       12.0110           0
      8014 MEMB     60       POPC     H4R      HAL2     0.900000E-01   1.00800           0
      8015 MEMB     60       POPC     H4S      HAL2     0.900000E-01   1.00800           0
      8016 MEMB     60       POPC     C25      CTL2    -0.180000       12.0110           0
      8017 MEMB     60       POPC     H5R      HAL2     0.900000E-01   1.00800           0
      8018 MEMB     60       POPC     H5S      HAL2     0.900000E-01   1.00800           0
      8019 MEMB     60       POPC     C26      CTL2    -0.180000       12.0110           0
      8020 MEMB     60       POPC     H6R      HAL2     0.900000E-01   1.00800           0
      8021 MEMB     60       POPC     H6S      HAL2     0.900000E-01   1.00800           0
      8022 MEMB     60       POPC     C27      CTL2    -0.180000       12.0110           0
      8023 MEMB     60       POPC     H7R      HAL2     0.900000E-01   1.00800           0
      8024 MEMB     60       POPC     H7S      HAL2     0.900000E-01   1.00800           0
      8025 MEMB     60       POPC     C28      CTL2    -0.180000       12.0110           0
      8026 MEMB     60       POPC     H8R      HAL2     0.900000E-01   1.00800           0
      8027 MEMB     60       POPC     H8S      HAL2     0.900000E-01   1.00800           0
      8028 MEMB     60       POPC     C29      CEL1    -0.150000       12.0110           0
      8029 MEMB     60       POPC     H91      HEL1     0.150000       1.00800           0
      8030 MEMB     60       POPC     C210     CEL1    -0.150000       12.0110           0
      8031 MEMB     60       POPC     H101     HEL1     0.150000       1.00800           0
      8032 MEMB     60       POPC     C211     CTL2    -0.180000       12.0110           0
      8033 MEMB     60       POPC     H11R     HAL2     0.900000E-01   1.00800           0
      8034 MEMB     60       POPC     H11S     HAL2     0.900000E-01   1.00800           0
      8035 MEMB     60       POPC     C212     CTL2    -0.180000       12.0110           0
      8036 MEMB     60       POPC     H12R     HAL2     0.900000E-01   1.00800           0
      8037 MEMB     60       POPC     H12S     HAL2     0.900000E-01   1.00800           0
      8038 MEMB     60       POPC     C213     CTL2    -0.180000       12.0110           0
      8039 MEMB     60       POPC     H13R     HAL2     0.900000E-01   1.00800           0
      8040 MEMB     60       POPC     H13S     HAL2     0.900000E-01   1.00800           0
      8041 MEMB     60       POPC     C214     CTL2    -0.180000       12.0110           0
      8042 MEMB     60       POPC     H14R     HAL2     0.900000E-01   1.00800           0
      8043 MEMB     60       POPC     H14S     HAL2     0.900000E-01   1.00800           0
      8044 MEMB     60       POPC     C215     CTL2    -0.180000       12.0110           0
      8045 MEMB     60       POPC     H15R     HAL2     0.900000E-01   1.00800           0
      8046 MEMB     60       POPC     H15S     HAL2     0.900000E-01   1.00800           0
      8047 MEMB     60       POPC     C216     CTL2    -0.180000       12.0110           0
      8048 MEMB     60       POPC     H16R     HAL2     0.900000E-01   1.00800           0
      8049 MEMB     60       POPC     H16S     HAL2     0.900000E-01   1.00800           0
      8050 MEMB     60       POPC     C217     CTL2    -0.180000       12.0110           0
      8051 MEMB     60       POPC     H17R     HAL2     0.900000E-01   1.00800           0
      8052 MEMB     60       POPC     H17S     HAL2     0.900000E-01   1.00800           0
      8053 MEMB     60       POPC     C218     CTL3    -0.270000       12.0110           0
      8054 MEMB     60       POPC     H18R     HAL3     0.900000E-01   1.00800           0
      8055 MEMB     60       POPC     H18S     HAL3     0.900000E-01   1.00800           0
      8056 MEMB     60       POPC     H18T     HAL3     0.900000E-01   1.00800           0
      8057 MEMB     60       POPC     C33      CTL2    -0.180000       12.0110           0
      8058 MEMB     60       POPC     H3X      HAL2     0.900000E-01   1.00800           0
      8059 MEMB     60       POPC     H3Y      HAL2     0.900000E-01   1.00800           0
      8060 MEMB     60       POPC     C34      CTL2    -0.180000       12.0110           0
      8061 MEMB     60       POPC     H4X      HAL2     0.900000E-01   1.00800           0
      8062 MEMB     60       POPC     H4Y      HAL2     0.900000E-01   1.00800           0
      8063 MEMB     60       POPC     C35      CTL2    -0.180000       12.0110           0
      8064 MEMB     60       POPC     H5X      HAL2     0.900000E-01   1.00800           0
      8065 MEMB     60       POPC     H5Y      HAL2     0.900000E-01   1.00800           0
      8066 MEMB     60       POPC     C36      CTL2    -0.180000       12.0110           0
      8067 MEMB     60       POPC     H6X      HAL2     0.900000E-01   1.00800           0
      8068 MEMB     60       POPC     H6Y      HAL2     0.900000E-01   1.00800           0
      8069 MEMB     60       POPC     C37      CTL2    -0.180000       12.0110           0
      8070 MEMB     60       POPC     H7X      HAL2     0.900000E-01   1.00800           0
      8071 MEMB     60       POPC     H7Y      HAL2     0.900000E-01   1.00800           0
      8072 MEMB     60       POPC     C38      CTL2    -0.180000       12.0110           0
      8073 MEMB     60       POPC     H8X      HAL2     0.900000E-01   1.00800           0
      8074 MEMB     60       POPC     H8Y      HAL2     0.900000E-01   1.00800           0
      8075 MEMB     60       POPC     C39      CTL2    -0.180000       12.0110           0
      8076 MEMB     60       POPC     H9X      HAL2     0.900000E-01   1.00800           0
      8077 MEMB     60       POPC     H9Y      HAL2     0.900000E-01   1.00800           0
      8078 MEMB     60       POPC     C310     CTL2    -0.180000       12.0110           0
      8079 MEMB     60       POPC     H10X     HAL2     0.900000E-01   1.00800           0
      8080 MEMB     60       POPC     H10Y     HAL2     0.900000E-01   1.00800           0
      8081 MEMB     60       POPC     C311     CTL2    -0.180000       12.0110           0
      8082 MEMB     60       POPC     H11X     HAL2     0.900000E-01   1.00800           0
      8083 MEMB     60       POPC     H11Y     HAL2     0.900000E-01   1.00800           0
      8084 MEMB     60       POPC     C312     CTL2    -0.180000       12.0110           0
      8085 MEMB     60       POPC     H12X     HAL2     0.900000E-01   1.00800           0
      8086 MEMB     60       POPC     H12Y     HAL2     0.900000E-01   1.00800           0
      8087 MEMB     60       POPC     C313     CTL2    -0.180000       12.0110           0
      8088 MEMB     60       POPC     H13X     HAL2     0.900000E-01   1.00800           0
      8089 MEMB     60       POPC     H13Y     HAL2     0.900000E-01   1.00800           0
      8090 MEMB     60       POPC     C314     CTL2    -0.180000       12.0110           0
      8091 MEMB     60       POPC     H14X     HAL2     0.900000E-01   1.00800           0
      8092 MEMB     60       POPC     H14Y     HAL2     0.900000E-01   1.00800           0
      8093 MEMB     60       POPC     C315     CTL2    -0.180000       12.0110           0
      8094 MEMB     60       POPC     H15X     HAL2     0.900000E-01   1.00800           0
      8095 MEMB     60       POPC     H15Y     HAL2     0.900000E-01   1.00800           0
      8096 MEMB     60       POPC     C316     CTL3    -0.270000       12.0110           0
      8097 MEMB     60       POPC     H16X     HAL3     0.900000E-01   1.00800           0
      8098 MEMB     60       POPC     H16Y     HAL3     0.900000E-01   1.00800           0
      8099 MEMB     60       POPC     H16Z     HAL3     0.900000E-01   1.00800           0
      8100 MEMB     61       POPC     N        NTL     -0.600000       14.0070           0
      8101 MEMB     61       POPC     C12      CTL2    -0.100000       12.0110           0
      8102 MEMB     61       POPC     H12A     HL       0.250000       1.00800           0
      8103 MEMB     61       POPC     H12B     HL       0.250000       1.00800           0
      8104 MEMB     61       POPC     C13      CTL5    -0.350000       12.0110           0
      8105 MEMB     61       POPC     H13A     HL       0.250000       1.00800           0
      8106 MEMB     61       POPC     H13B     HL       0.250000       1.00800           0
      8107 MEMB     61       POPC     H13C     HL       0.250000       1.00800           0
      8108 MEMB     61       POPC     C14      CTL5    -0.350000       12.0110           0
      8109 MEMB     61       POPC     H14A     HL       0.250000       1.00800           0
      8110 MEMB     61       POPC     H14B     HL       0.250000       1.00800           0
      8111 MEMB     61       POPC     H14C     HL       0.250000       1.00800           0
      8112 MEMB     61       POPC     C15      CTL5    -0.350000       12.0110           0
      8113 MEMB     61       POPC     H15A     HL       0.250000       1.00800           0
      8114 MEMB     61       POPC     H15B     HL       0.250000       1.00800           0
      8115 MEMB     61       POPC     H15C     HL       0.250000       1.00800           0
      8116 MEMB     61       POPC     C11      CTL2    -0.800000E-01   12.0110           0
      8117 MEMB     61       POPC     H11A     HAL2     0.900000E-01   1.00800           0
      8118 MEMB     61       POPC     H11B     HAL2     0.900000E-01   1.00800           0
      8119 MEMB     61       POPC     P        PL       1.500000       30.9740           0
      8120 MEMB     61       POPC     O13      O2L     -0.780000       15.9994           0
      8121 MEMB     61       POPC     O14      O2L     -0.780000       15.9994           0
      8122 MEMB     61       POPC     O12      OSLP    -0.570000       15.9994           0
      8123 MEMB     61       POPC     O11      OSLP    -0.570000       15.9994           0
      8124 MEMB     61       POPC     C1       CTL2    -0.800000E-01   12.0110           0
      8125 MEMB     61       POPC     HA       HAL2     0.900000E-01   1.00800           0
      8126 MEMB     61       POPC     HB       HAL2     0.900000E-01   1.00800           0
      8127 MEMB     61       POPC     C2       CTL1     0.170000       12.0110           0
      8128 MEMB     61       POPC     HS       HAL1     0.900000E-01   1.00800           0
      8129 MEMB     61       POPC     O21      OSL     -0.490000       15.9994           0
      8130 MEMB     61       POPC     C21      CL       0.900000       12.0110           0
      8131 MEMB     61       POPC     O22      OBL     -0.630000       15.9994           0
      8132 MEMB     61       POPC     C22      CTL2    -0.220000       12.0110           0
      8133 MEMB     61       POPC     H2R      HAL2     0.900000E-01   1.00800           0
      8134 MEMB     61       POPC     H2S      HAL2     0.900000E-01   1.00800           0
      8135 MEMB     61       POPC     C3       CTL2     0.800000E-01   12.0110           0
      8136 MEMB     61       POPC     HX       HAL2     0.900000E-01   1.00800           0
      8137 MEMB     61       POPC     HY       HAL2     0.900000E-01   1.00800           0
      8138 MEMB     61       POPC     O31      OSL     -0.490000       15.9994           0
      8139 MEMB     61       POPC     C31      CL       0.900000       12.0110           0
      8140 MEMB     61       POPC     O32      OBL     -0.630000       15.9994           0
      8141 MEMB     61       POPC     C32      CTL2    -0.220000       12.0110           0
      8142 MEMB     61       POPC     H2X      HAL2     0.900000E-01   1.00800           0
      8143 MEMB     61       POPC     H2Y      HAL2     0.900000E-01   1.00800           0
      8144 MEMB     61       POPC     C23      CTL2    -0.180000       12.0110           0
      8145 MEMB     61       POPC     H3R      HAL2     0.900000E-01   1.00800           0
      8146 MEMB     61       POPC     H3S      HAL2     0.900000E-01   1.00800           0
      8147 MEMB     61       POPC     C24      CTL2    -0.180000       12.0110           0
      8148 MEMB     61       POPC     H4R      HAL2     0.900000E-01   1.00800           0
      8149 MEMB     61       POPC     H4S      HAL2     0.900000E-01   1.00800           0
      8150 MEMB     61       POPC     C25      CTL2    -0.180000       12.0110           0
      8151 MEMB     61       POPC     H5R      HAL2     0.900000E-01   1.00800           0
      8152 MEMB     61       POPC     H5S      HAL2     0.900000E-01   1.00800           0
      8153 MEMB     61       POPC     C26      CTL2    -0.180000       12.0110           0
      8154 MEMB     61       POPC     H6R      HAL2     0.900000E-01   1.00800           0
      8155 MEMB     61       POPC     H6S      HAL2     0.900000E-01   1.00800           0
      8156 MEMB     61       POPC     C27      CTL2    -0.180000       12.0110           0
      8157 MEMB     61       POPC     H7R      HAL2     0.900000E-01   1.00800           0
      8158 MEMB     61       POPC     H7S      HAL2     0.900000E-01   1.00800           0
      8159 MEMB     61       POPC     C28      CTL2    -0.180000       12.0110           0
      8160 MEMB     61       POPC     H8R      HAL2     0.900000E-01   1.00800           0
      8161 MEMB     61       POPC     H8S      HAL2     0.900000E-01   1.00800           0
      8162 MEMB     61       POPC     C29      CEL1    -0.150000       12.0110           0
      8163 MEMB     61       POPC     H91      HEL1     0.150000       1.00800           0
      8164 MEMB     61       POPC     C210     CEL1    -0.150000       12.0110           0
      8165 MEMB     61       POPC     H101     HEL1     0.150000       1.00800           0
      8166 MEMB     61       POPC     C211     CTL2    -0.180000       12.0110           0
      8167 MEMB     61       POPC     H11R     HAL2     0.900000E-01   1.00800           0
      8168 MEMB     61       POPC     H11S     HAL2     0.900000E-01   1.00800           0
      8169 MEMB     61       POPC     C212     CTL2    -0.180000       12.0110           0
      8170 MEMB     61       POPC     H12R     HAL2     0.900000E-01   1.00800           0
      8171 MEMB     61       POPC     H12S     HAL2     0.900000E-01   1.00800           0
      8172 MEMB     61       POPC     C213     CTL2    -0.180000       12.0110           0
      8173 MEMB     61       POPC     H13R     HAL2     0.900000E-01   1.00800           0
      8174 MEMB     61       POPC     H13S     HAL2     0.900000E-01   1.00800           0
      8175 MEMB     61       POPC     C214     CTL2    -0.180000       12.0110           0
      8176 MEMB     61       POPC     H14R     HAL2     0.900000E-01   1.00800           0
      8177 MEMB     61       POPC     H14S     HAL2     0.900000E-01   1.00800           0
      8178 MEMB     61       POPC     C215     CTL2    -0.180000       12.0110           0
      8179 MEMB     61       POPC     H15R     HAL2     0.900000E-01   1.00800           0
      8180 MEMB     61       POPC     H15S     HAL2     0.900000E-01   1.00800           0
      8181 MEMB     61       POPC     C216     CTL2    -0.180000       12.0110           0
      8182 MEMB     61       POPC     H16R     HAL2     0.900000E-01   1.00800           0
      8183 MEMB     61       POPC     H16S     HAL2     0.900000E-01   1.00800           0
      8184 MEMB     61       POPC     C217     CTL2    -0.180000       12.0110           0
      8185 MEMB     61       POPC     H17R     HAL2     0.900000E-01   1.00800           0
      8186 MEMB     61       POPC     H17S     HAL2     0.900000E-01   1.00800           0
      8187 MEMB     61       POPC     C218     CTL3    -0.270000       12.0110           0
      8188 MEMB     61       POPC     H18R     HAL3     0.900000E-01   1.00800           0
      8189 MEMB     61       POPC     H18S     HAL3     0.900000E-01   1.00800           0
      8190 MEMB     61       POPC     H18T     HAL3     0.900000E-01   1.00800           0
      8191 MEMB     61       POPC     C33      CTL2    -0.180000       12.0110           0
      8192 MEMB     61       POPC     H3X      HAL2     0.900000E-01   1.00800           0
      8193 MEMB     61       POPC     H3Y      HAL2     0.900000E-01   1.00800           0
      8194 MEMB     61       POPC     C34      CTL2    -0.180000       12.0110           0
      8195 MEMB     61       POPC     H4X      HAL2     0.900000E-01   1.00800           0
      8196 MEMB     61       POPC     H4Y      HAL2     0.900000E-01   1.00800           0
      8197 MEMB     61       POPC     C35      CTL2    -0.180000       12.0110           0
      8198 MEMB     61       POPC     H5X      HAL2     0.900000E-01   1.00800           0
      8199 MEMB     61       POPC     H5Y      HAL2     0.900000E-01   1.00800           0
      8200 MEMB     61       POPC     C36      CTL2    -0.180000       12.0110           0
      8201 MEMB     61       POPC     H6X      HAL2     0.900000E-01   1.00800           0
      8202 MEMB     61       POPC     H6Y      HAL2     0.900000E-01   1.00800           0
      8203 MEMB     61       POPC     C37      CTL2    -0.180000       12.0110           0
      8204 MEMB     61       POPC     H7X      HAL2     0.900000E-01   1.00800           0
      8205 MEMB     61       POPC     H7Y      HAL2     0.900000E-01   1.00800           0
      8206 MEMB     61       POPC     C38      CTL2    -0.180000       12.0110           0
      8207 MEMB     61       POPC     H8X      HAL2     0.900000E-01   1.00800           0
      8208 MEMB     61       POPC     H8Y      HAL2     0.900000E-01   1.00800           0
      8209 MEMB     61       POPC     C39      CTL2    -0.180000       12.0110           0
      8210 MEMB     61       POPC     H9X      HAL2     0.900000E-01   1.00800           0
      8211 MEMB     61       POPC     H9Y      HAL2     0.900000E-01   1.00800           0
      8212 MEMB     61       POPC     C310     CTL2    -0.180000       12.0110           0
      8213 MEMB     61       POPC     H10X     HAL2     0.900000E-01   1.00800           0
      8214 MEMB     61       POPC     H10Y     HAL2     0.900000E-01   1.00800           0
      8215 MEMB     61       POPC     C311     CTL2    -0.180000       12.0110           0
      8216 MEMB     61       POPC     H11X     HAL2     0.900000E-01   1.00800           0
      8217 MEMB     61       POPC     H11Y     HAL2     0.900000E-01   1.00800           0
      8218 MEMB     61       POPC     C312     CTL2    -0.180000       12.0110           0
      8219 MEMB     61       POPC     H12X     HAL2     0.900000E-01   1.00800           0
      8220 MEMB     61       POPC     H12Y     HAL2     0.900000E-01   1.00800           0
      8221 MEMB     61       POPC     C313     CTL2    -0.180000       12.0110           0
      8222 MEMB     61       POPC     H13X     HAL2     0.900000E-01   1.00800           0
      8223 MEMB     61       POPC     H13Y     HAL2     0.900000E-01   1.00800           0
      8224 MEMB     61       POPC     C314     CTL2    -0.180000       12.0110           0
      8225 MEMB     61       POPC     H14X     HAL2     0.900000E-01   1.00800           0
      8226 MEMB     61       POPC     H14Y     HAL2     0.900000E-01   1.00800           0
      8227 MEMB     61       POPC     C315     CTL2    -0.180000       12.0110           0
      8228 MEMB     61       POPC     H15X     HAL2     0.900000E-01   1.00800           0
      8229 MEMB     61       POPC     H15Y     HAL2     0.900000E-01   1.00800           0
      8230 MEMB     61       POPC     C316     CTL3    -0.270000       12.0110           0
      8231 MEMB     61       POPC     H16X     HAL3     0.900000E-01   1.00800           0
      8232 MEMB     61       POPC     H16Y     HAL3     0.900000E-01   1.00800           0
      8233 MEMB     61       POPC     H16Z     HAL3     0.900000E-01   1.00800           0
      8234 MEMB     62       POPC     N        NTL     -0.600000       14.0070           0
      8235 MEMB     62       POPC     C12      CTL2    -0.100000       12.0110           0
      8236 MEMB     62       POPC     H12A     HL       0.250000       1.00800           0
      8237 MEMB     62       POPC     H12B     HL       0.250000       1.00800           0
      8238 MEMB     62       POPC     C13      CTL5    -0.350000       12.0110           0
      8239 MEMB     62       POPC     H13A     HL       0.250000       1.00800           0
      8240 MEMB     62       POPC     H13B     HL       0.250000       1.00800           0
      8241 MEMB     62       POPC     H13C     HL       0.250000       1.00800           0
      8242 MEMB     62       POPC     C14      CTL5    -0.350000       12.0110           0
      8243 MEMB     62       POPC     H14A     HL       0.250000       1.00800           0
      8244 MEMB     62       POPC     H14B     HL       0.250000       1.00800           0
      8245 MEMB     62       POPC     H14C     HL       0.250000       1.00800           0
      8246 MEMB     62       POPC     C15      CTL5    -0.350000       12.0110           0
      8247 MEMB     62       POPC     H15A     HL       0.250000       1.00800           0
      8248 MEMB     62       POPC     H15B     HL       0.250000       1.00800           0
      8249 MEMB     62       POPC     H15C     HL       0.250000       1.00800           0
      8250 MEMB     62       POPC     C11      CTL2    -0.800000E-01   12.0110           0
      8251 MEMB     62       POPC     H11A     HAL2     0.900000E-01   1.00800           0
      8252 MEMB     62       POPC     H11B     HAL2     0.900000E-01   1.00800           0
      8253 MEMB     62       POPC     P        PL       1.500000       30.9740           0
      8254 MEMB     62       POPC     O13      O2L     -0.780000       15.9994           0
      8255 MEMB     62       POPC     O14      O2L     -0.780000       15.9994           0
      8256 MEMB     62       POPC     O12      OSLP    -0.570000       15.9994           0
      8257 MEMB     62       POPC     O11      OSLP    -0.570000       15.9994           0
      8258 MEMB     62       POPC     C1       CTL2    -0.800000E-01   12.0110           0
      8259 MEMB     62       POPC     HA       HAL2     0.900000E-01   1.00800           0
      8260 MEMB     62       POPC     HB       HAL2     0.900000E-01   1.00800           0
      8261 MEMB     62       POPC     C2       CTL1     0.170000       12.0110           0
      8262 MEMB     62       POPC     HS       HAL1     0.900000E-01   1.00800           0
      8263 MEMB     62       POPC     O21      OSL     -0.490000       15.9994           0
      8264 MEMB     62       POPC     C21      CL       0.900000       12.0110           0
      8265 MEMB     62       POPC     O22      OBL     -0.630000       15.9994           0
      8266 MEMB     62       POPC     C22      CTL2    -0.220000       12.0110           0
      8267 MEMB     62       POPC     H2R      HAL2     0.900000E-01   1.00800           0
      8268 MEMB     62       POPC     H2S      HAL2     0.900000E-01   1.00800           0
      8269 MEMB     62       POPC     C3       CTL2     0.800000E-01   12.0110           0
      8270 MEMB     62       POPC     HX       HAL2     0.900000E-01   1.00800           0
      8271 MEMB     62       POPC     HY       HAL2     0.900000E-01   1.00800           0
      8272 MEMB     62       POPC     O31      OSL     -0.490000       15.9994           0
      8273 MEMB     62       POPC     C31      CL       0.900000       12.0110           0
      8274 MEMB     62       POPC     O32      OBL     -0.630000       15.9994           0
      8275 MEMB     62       POPC     C32      CTL2    -0.220000       12.0110           0
      8276 MEMB     62       POPC     H2X      HAL2     0.900000E-01   1.00800           0
      8277 MEMB     62       POPC     H2Y      HAL2     0.900000E-01   1.00800           0
      8278 MEMB     62       POPC     C23      CTL2    -0.180000       12.0110           0
      8279 MEMB     62       POPC     H3R      HAL2     0.900000E-01   1.00800           0
      8280 MEMB     62       POPC     H3S      HAL2     0.900000E-01   1.00800           0
      8281 MEMB     62       POPC     C24      CTL2    -0.180000       12.0110           0
      8282 MEMB     62       POPC     H4R      HAL2     0.900000E-01   1.00800           0
      8283 MEMB     62       POPC     H4S      HAL2     0.900000E-01   1.00800           0
      8284 MEMB     62       POPC     C25      CTL2    -0.180000       12.0110           0
      8285 MEMB     62       POPC     H5R      HAL2     0.900000E-01   1.00800           0
      8286 MEMB     62       POPC     H5S      HAL2     0.900000E-01   1.00800           0
      8287 MEMB     62       POPC     C26      CTL2    -0.180000       12.0110           0
      8288 MEMB     62       POPC     H6R      HAL2     0.900000E-01   1.00800           0
      8289 MEMB     62       POPC     H6S      HAL2     0.900000E-01   1.00800           0
      8290 MEMB     62       POPC     C27      CTL2    -0.180000       12.0110           0
      8291 MEMB     62       POPC     H7R      HAL2     0.900000E-01   1.00800           0
      8292 MEMB     62       POPC     H7S      HAL2     0.900000E-01   1.00800           0
      8293 MEMB     62       POPC     C28      CTL2    -0.180000       12.0110           0
      8294 MEMB     62       POPC     H8R      HAL2     0.900000E-01   1.00800           0
      8295 MEMB     62       POPC     H8S      HAL2     0.900000E-01   1.00800           0
      8296 MEMB     62       POPC     C29      CEL1    -0.150000       12.0110           0
      8297 MEMB     62       POPC     H91      HEL1     0.150000       1.00800           0
      8298 MEMB     62       POPC     C210     CEL1    -0.150000       12.0110           0
      8299 MEMB     62       POPC     H101     HEL1     0.150000       1.00800           0
      8300 MEMB     62       POPC     C211     CTL2    -0.180000       12.0110           0
      8301 MEMB     62       POPC     H11R     HAL2     0.900000E-01   1.00800           0
      8302 MEMB     62       POPC     H11S     HAL2     0.900000E-01   1.00800           0
      8303 MEMB     62       POPC     C212     CTL2    -0.180000       12.0110           0
      8304 MEMB     62       POPC     H12R     HAL2     0.900000E-01   1.00800           0
      8305 MEMB     62       POPC     H12S     HAL2     0.900000E-01   1.00800           0
      8306 MEMB     62       POPC     C213     CTL2    -0.180000       12.0110           0
      8307 MEMB     62       POPC     H13R     HAL2     0.900000E-01   1.00800           0
      8308 MEMB     62       POPC     H13S     HAL2     0.900000E-01   1.00800           0
      8309 MEMB     62       POPC     C214     CTL2    -0.180000       12.0110           0
      8310 MEMB     62       POPC     H14R     HAL2     0.900000E-01   1.00800           0
      8311 MEMB     62       POPC     H14S     HAL2     0.900000E-01   1.00800           0
      8312 MEMB     62       POPC     C215     CTL2    -0.180000       12.0110           0
      8313 MEMB     62       POPC     H15R     HAL2     0.900000E-01   1.00800           0
      8314 MEMB     62       POPC     H15S     HAL2     0.900000E-01   1.00800           0
      8315 MEMB     62       POPC     C216     CTL2    -0.180000       12.0110           0
      8316 MEMB     62       POPC     H16R     HAL2     0.900000E-01   1.00800           0
      8317 MEMB     62       POPC     H16S     HAL2     0.900000E-01   1.00800           0
      8318 MEMB     62       POPC     C217     CTL2    -0.180000       12.0110           0
      8319 MEMB     62       POPC     H17R     HAL2     0.900000E-01   1.00800           0
      8320 MEMB     62       POPC     H17S     HAL2     0.900000E-01   1.00800           0
      8321 MEMB     62       POPC     C218     CTL3    -0.270000       12.0110           0
      8322 MEMB     62       POPC     H18R     HAL3     0.900000E-01   1.00800           0
      8323 MEMB     62       POPC     H18S     HAL3     0.900000E-01   1.00800           0
      8324 MEMB     62       POPC     H18T     HAL3     0.900000E-01   1.00800           0
      8325 MEMB     62       POPC     C33      CTL2    -0.180000       12.0110           0
      8326 MEMB     62       POPC     H3X      HAL2     0.900000E-01   1.00800           0
      8327 MEMB     62       POPC     H3Y      HAL2     0.900000E-01   1.00800           0
      8328 MEMB     62       POPC     C34      CTL2    -0.180000       12.0110           0
      8329 MEMB     62       POPC     H4X      HAL2     0.900000E-01   1.00800           0
      8330 MEMB     62       POPC     H4Y      HAL2     0.900000E-01   1.00800           0
      8331 MEMB     62       POPC     C35      CTL2    -0.180000       12.0110           0
      8332 MEMB     62       POPC     H5X      HAL2     0.900000E-01   1.00800           0
      8333 MEMB     62       POPC     H5Y      HAL2     0.900000E-01   1.00800           0
      8334 MEMB     62       POPC     C36      CTL2    -0.180000       12.0110           0
      8335 MEMB     62       POPC     H6X      HAL2     0.900000E-01   1.00800           0
      8336 MEMB     62       POPC     H6Y      HAL2     0.900000E-01   1.00800           0
      8337 MEMB     62       POPC     C37      CTL2    -0.180000       12.0110           0
      8338 MEMB     62       POPC     H7X      HAL2     0.900000E-01   1.00800           0
      8339 MEMB     62       POPC     H7Y      HAL2     0.900000E-01   1.00800           0
      8340 MEMB     62       POPC     C38      CTL2    -0.180000       12.0110           0
      8341 MEMB     62       POPC     H8X      HAL2     0.900000E-01   1.00800           0
      8342 MEMB     62       POPC     H8Y      HAL2     0.900000E-01   1.00800           0
      8343 MEMB     62       POPC     C39      CTL2    -0.180000       12.0110           0
      8344 MEMB     62       POPC     H9X      HAL2     0.900000E-01   1.00800           0
      8345 MEMB     62       POPC     H9Y      HAL2     0.900000E-01   1.00800           0
      8346 MEMB     62       POPC     C310     CTL2    -0.180000       12.0110           0
      8347 MEMB     62       POPC     H10X     HAL2     0.900000E-01   1.00800           0
      8348 MEMB     62       POPC     H10Y     HAL2     0.900000E-01   1.00800           0
      8349 MEMB     62       POPC     C311     CTL2    -0.180000       12.0110           0
      8350 MEMB     62       POPC     H11X     HAL2     0.900000E-01   1.00800           0
      8351 MEMB     62       POPC     H11Y     HAL2     0.900000E-01   1.00800           0
      8352 MEMB     62       POPC     C312     CTL2    -0.180000       12.0110           0
      8353 MEMB     62       POPC     H12X     HAL2     0.900000E-01   1.00800           0
      8354 MEMB     62       POPC     H12Y     HAL2     0.900000E-01   1.00800           0
      8355 MEMB     62       POPC     C313     CTL2    -0.180000       12.0110           0
      8356 MEMB     62       POPC     H13X     HAL2     0.900000E-01   1.00800           0
      8357 MEMB     62       POPC     H13Y     HAL2     0.900000E-01   1.00800           0
      8358 MEMB     62       POPC     C314     CTL2    -0.180000       12.0110           0
      8359 MEMB     62       POPC     H14X     HAL2     0.900000E-01   1.00800           0
      8360 MEMB     62       POPC     H14Y     HAL2     0.900000E-01   1.00800           0
      8361 MEMB     62       POPC     C315     CTL2    -0.180000       12.0110           0
      8362 MEMB     62       POPC     H15X     HAL2     0.900000E-01   1.00800           0
      8363 MEMB     62       POPC     H15Y     HAL2     0.900000E-01   1.00800           0
      8364 MEMB     62       POPC     C316     CTL3    -0.270000       12.0110           0
      8365 MEMB     62       POPC     H16X     HAL3     0.900000E-01   1.00800           0
      8366 MEMB     62       POPC     H16Y     HAL3     0.900000E-01   1.00800           0
      8367 MEMB     62       POPC     H16Z     HAL3     0.900000E-01   1.00800           0
      8368 MEMB     63       POPS     N        NH3L    -0.300000       14.0070           0
      8369 MEMB     63       POPS     HN1      HCL      0.330000       1.00800           0
      8370 MEMB     63       POPS     HN2      HCL      0.330000       1.00800           0
      8371 MEMB     63       POPS     HN3      HCL      0.330000       1.00800           0
      8372 MEMB     63       POPS     C12      CTL1     0.210000       12.0110           0
      8373 MEMB     63       POPS     H12A     HBL      0.100000       1.00800           0
      8374 MEMB     63       POPS     C13      CCL      0.340000       12.0110           0
      8375 MEMB     63       POPS     O13A     OCL     -0.670000       15.9994           0
      8376 MEMB     63       POPS     O13B     OCL     -0.670000       15.9994           0
      8377 MEMB     63       POPS     C11      CTL2    -0.800000E-01   12.0110           0
      8378 MEMB     63       POPS     H11A     HAL2     0.900000E-01   1.00800           0
      8379 MEMB     63       POPS     H11B     HAL2     0.900000E-01   1.00800           0
      8380 MEMB     63       POPS     P        PL       1.500000       30.9740           0
      8381 MEMB     63       POPS     O13      O2L     -0.780000       15.9994           0
      8382 MEMB     63       POPS     O14      O2L     -0.780000       15.9994           0
      8383 MEMB     63       POPS     O12      OSLP    -0.570000       15.9994           0
      8384 MEMB     63       POPS     O11      OSLP    -0.570000       15.9994           0
      8385 MEMB     63       POPS     C1       CTL2    -0.800000E-01   12.0110           0
      8386 MEMB     63       POPS     HA       HAL2     0.900000E-01   1.00800           0
      8387 MEMB     63       POPS     HB       HAL2     0.900000E-01   1.00800           0
      8388 MEMB     63       POPS     C2       CTL1     0.170000       12.0110           0
      8389 MEMB     63       POPS     HS       HAL1     0.900000E-01   1.00800           0
      8390 MEMB     63       POPS     O21      OSL     -0.490000       15.9994           0
      8391 MEMB     63       POPS     C21      CL       0.900000       12.0110           0
      8392 MEMB     63       POPS     O22      OBL     -0.630000       15.9994           0
      8393 MEMB     63       POPS     C22      CTL2    -0.220000       12.0110           0
      8394 MEMB     63       POPS     H2R      HAL2     0.900000E-01   1.00800           0
      8395 MEMB     63       POPS     H2S      HAL2     0.900000E-01   1.00800           0
      8396 MEMB     63       POPS     C3       CTL2     0.800000E-01   12.0110           0
      8397 MEMB     63       POPS     HX       HAL2     0.900000E-01   1.00800           0
      8398 MEMB     63       POPS     HY       HAL2     0.900000E-01   1.00800           0
      8399 MEMB     63       POPS     O31      OSL     -0.490000       15.9994           0
      8400 MEMB     63       POPS     C31      CL       0.900000       12.0110           0
      8401 MEMB     63       POPS     O32      OBL     -0.630000       15.9994           0
      8402 MEMB     63       POPS     C32      CTL2    -0.220000       12.0110           0
      8403 MEMB     63       POPS     H2X      HAL2     0.900000E-01   1.00800           0
      8404 MEMB     63       POPS     H2Y      HAL2     0.900000E-01   1.00800           0
      8405 MEMB     63       POPS     C23      CTL2    -0.180000       12.0110           0
      8406 MEMB     63       POPS     H3R      HAL2     0.900000E-01   1.00800           0
      8407 MEMB     63       POPS     H3S      HAL2     0.900000E-01   1.00800           0
      8408 MEMB     63       POPS     C24      CTL2    -0.180000       12.0110           0
      8409 MEMB     63       POPS     H4R      HAL2     0.900000E-01   1.00800           0
      8410 MEMB     63       POPS     H4S      HAL2     0.900000E-01   1.00800           0
      8411 MEMB     63       POPS     C25      CTL2    -0.180000       12.0110           0
      8412 MEMB     63       POPS     H5R      HAL2     0.900000E-01   1.00800           0
      8413 MEMB     63       POPS     H5S      HAL2     0.900000E-01   1.00800           0
      8414 MEMB     63       POPS     C26      CTL2    -0.180000       12.0110           0
      8415 MEMB     63       POPS     H6R      HAL2     0.900000E-01   1.00800           0
      8416 MEMB     63       POPS     H6S      HAL2     0.900000E-01   1.00800           0
      8417 MEMB     63       POPS     C27      CTL2    -0.180000       12.0110           0
      8418 MEMB     63       POPS     H7R      HAL2     0.900000E-01   1.00800           0
      8419 MEMB     63       POPS     H7S      HAL2     0.900000E-01   1.00800           0
      8420 MEMB     63       POPS     C28      CTL2    -0.180000       12.0110           0
      8421 MEMB     63       POPS     H8R      HAL2     0.900000E-01   1.00800           0
      8422 MEMB     63       POPS     H8S      HAL2     0.900000E-01   1.00800           0
      8423 MEMB     63       POPS     C29      CEL1    -0.150000       12.0110           0
      8424 MEMB     63       POPS     H91      HEL1     0.150000       1.00800           0
      8425 MEMB     63       POPS     C210     CEL1    -0.150000       12.0110           0
      8426 MEMB     63       POPS     H101     HEL1     0.150000       1.00800           0
      8427 MEMB     63       POPS     C211     CTL2    -0.180000       12.0110           0
      8428 MEMB     63       POPS     H11R     HAL2     0.900000E-01   1.00800           0
      8429 MEMB     63       POPS     H11S     HAL2     0.900000E-01   1.00800           0
      8430 MEMB     63       POPS     C212     CTL2    -0.180000       12.0110           0
      8431 MEMB     63       POPS     H12R     HAL2     0.900000E-01   1.00800           0
      8432 MEMB     63       POPS     H12S     HAL2     0.900000E-01   1.00800           0
      8433 MEMB     63       POPS     C213     CTL2    -0.180000       12.0110           0
      8434 MEMB     63       POPS     H13R     HAL2     0.900000E-01   1.00800           0
      8435 MEMB     63       POPS     H13S     HAL2     0.900000E-01   1.00800           0
      8436 MEMB     63       POPS     C214     CTL2    -0.180000       12.0110           0
      8437 MEMB     63       POPS     H14R     HAL2     0.900000E-01   1.00800           0
      8438 MEMB     63       POPS     H14S     HAL2     0.900000E-01   1.00800           0
      8439 MEMB     63       POPS     C215     CTL2    -0.180000       12.0110           0
      8440 MEMB     63       POPS     H15R     HAL2     0.900000E-01   1.00800           0
      8441 MEMB     63       POPS     H15S     HAL2     0.900000E-01   1.00800           0
      8442 MEMB     63       POPS     C216     CTL2    -0.180000       12.0110           0
      8443 MEMB     63       POPS     H16R     HAL2     0.900000E-01   1.00800           0
      8444 MEMB     63       POPS     H16S     HAL2     0.900000E-01   1.00800           0
      8445 MEMB     63       POPS     C217     CTL2    -0.180000       12.0110           0
      8446 MEMB     63       POPS     H17R     HAL2     0.900000E-01   1.00800           0
      8447 MEMB     63       POPS     H17S     HAL2     0.900000E-01   1.00800           0
      8448 MEMB     63       POPS     C218     CTL3    -0.270000       12.0110           0
      8449 MEMB     63       POPS     H18R     HAL3     0.900000E-01   1.00800           0
      8450 MEMB     63       POPS     H18S     HAL3     0.900000E-01   1.00800           0
      8451 MEMB     63       POPS     H18T     HAL3     0.900000E-01   1.00800           0
      8452 MEMB     63       POPS     C33      CTL2    -0.180000       12.0110           0
      8453 MEMB     63       POPS     H3X      HAL2     0.900000E-01   1.00800           0
      8454 MEMB     63       POPS     H3Y      HAL2     0.900000E-01   1.00800           0
      8455 MEMB     63       POPS     C34      CTL2    -0.180000       12.0110           0
      8456 MEMB     63       POPS     H4X      HAL2     0.900000E-01   1.00800           0
      8457 MEMB     63       POPS     H4Y      HAL2     0.900000E-01   1.00800           0
      8458 MEMB     63       POPS     C35      CTL2    -0.180000       12.0110           0
      8459 MEMB     63       POPS     H5X      HAL2     0.900000E-01   1.00800           0
      8460 MEMB     63       POPS     H5Y      HAL2     0.900000E-01   1.00800           0
      8461 MEMB     63       POPS     C36      CTL2    -0.180000       12.0110           0
      8462 MEMB     63       POPS     H6X      HAL2     0.900000E-01   1.00800           0
      8463 MEMB     63       POPS     H6Y      HAL2     0.900000E-01   1.00800           0
      8464 MEMB     63       POPS     C37      CTL2    -0.180000       12.0110           0
      8465 MEMB     63       POPS     H7X      HAL2     0.900000E-01   1.00800           0
      8466 MEMB     63       POPS     H7Y      HAL2     0.900000E-01   1.00800           0
      8467 MEMB     63       POPS     C38      CTL2    -0.180000       12.0110           0
      8468 MEMB     63       POPS     H8X      HAL2     0.900000E-01   1.00800           0
      8469 MEMB     63       POPS     H8Y      HAL2     0.900000E-01   1.00800           0
      8470 MEMB     63       POPS     C39      CTL2    -0.180000       12.0110           0
      8471 MEMB     63       POPS     H9X      HAL2     0.900000E-01   1.00800           0
      8472 MEMB     63       POPS     H9Y      HAL2     0.900000E-01   1.00800           0
      8473 MEMB     63       POPS     C310     CTL2    -0.180000       12.0110           0
      8474 MEMB     63       POPS     H10X     HAL2     0.900000E-01   1.00800           0
      8475 MEMB     63       POPS     H10Y     HAL2     0.900000E-01   1.00800           0
      8476 MEMB     63       POPS     C311     CTL2    -0.180000       12.0110           0
      8477 MEMB     63       POPS     H11X     HAL2     0.900000E-01   1.00800           0
      8478 MEMB     63       POPS     H11Y     HAL2     0.900000E-01   1.00800           0
      8479 MEMB     63       POPS     C312     CTL2    -0.180000       12.0110           0
      8480 MEMB     63       POPS     H12X     HAL2     0.900000E-01   1.00800           0
      8481 MEMB     63       POPS     H12Y     HAL2     0.900000E-01   1.00800           0
      8482 MEMB     63       POPS     C313     CTL2    -0.180000       12.0110           0
      8483 MEMB     63       POPS     H13X     HAL2     0.900000E-01   1.00800           0
      8484 MEMB     63       POPS     H13Y     HAL2     0.900000E-01   1.00800           0
      8485 MEMB     63       POPS     C314     CTL2    -0.180000       12.0110           0
      8486 MEMB     63       POPS     H14X     HAL2     0.900000E-01   1.00800           0
      8487 MEMB     63       POPS     H14Y     HAL2     0.900000E-01   1.00800           0
      8488 MEMB     63       POPS     C315     CTL2    -0.180000       12.0110           0
      8489 MEMB     63       POPS     H15X     HAL2     0.900000E-01   1.00800           0
      8490 MEMB     63       POPS     H15Y     HAL2     0.900000E-01   1.00800           0
      8491 MEMB     63       POPS     C316     CTL3    -0.270000       12.0110           0
      8492 MEMB     63       POPS     H16X     HAL3     0.900000E-01   1.00800           0
      8493 MEMB     63       POPS     H16Y     HAL3     0.900000E-01   1.00800           0
      8494 MEMB     63       POPS     H16Z     HAL3     0.900000E-01   1.00800           0
      8495 MEMB     64       POPS     N        NH3L    -0.300000       14.0070           0
      8496 MEMB     64       POPS     HN1      HCL      0.330000       1.00800           0
      8497 MEMB     64       POPS     HN2      HCL      0.330000       1.00800           0
      8498 MEMB     64       POPS     HN3      HCL      0.330000       1.00800           0
      8499 MEMB     64       POPS     C12      CTL1     0.210000       12.0110           0
      8500 MEMB     64       POPS     H12A     HBL      0.100000       1.00800           0
      8501 MEMB     64       POPS     C13      CCL      0.340000       12.0110           0
      8502 MEMB     64       POPS     O13A     OCL     -0.670000       15.9994           0
      8503 MEMB     64       POPS     O13B     OCL     -0.670000       15.9994           0
      8504 MEMB     64       POPS     C11      CTL2    -0.800000E-01   12.0110           0
      8505 MEMB     64       POPS     H11A     HAL2     0.900000E-01   1.00800           0
      8506 MEMB     64       POPS     H11B     HAL2     0.900000E-01   1.00800           0
      8507 MEMB     64       POPS     P        PL       1.500000       30.9740           0
      8508 MEMB     64       POPS     O13      O2L     -0.780000       15.9994           0
      8509 MEMB     64       POPS     O14      O2L     -0.780000       15.9994           0
      8510 MEMB     64       POPS     O12      OSLP    -0.570000       15.9994           0
      8511 MEMB     64       POPS     O11      OSLP    -0.570000       15.9994           0
      8512 MEMB     64       POPS     C1       CTL2    -0.800000E-01   12.0110           0
      8513 MEMB     64       POPS     HA       HAL2     0.900000E-01   1.00800           0
      8514 MEMB     64       POPS     HB       HAL2     0.900000E-01   1.00800           0
      8515 MEMB     64       POPS     C2       CTL1     0.170000       12.0110           0
      8516 MEMB     64       POPS     HS       HAL1     0.900000E-01   1.00800           0
      8517 MEMB     64       POPS     O21      OSL     -0.490000       15.9994           0
      8518 MEMB     64       POPS     C21      CL       0.900000       12.0110           0
      8519 MEMB     64       POPS     O22      OBL     -0.630000       15.9994           0
      8520 MEMB     64       POPS     C22      CTL2    -0.220000       12.0110           0
      8521 MEMB     64       POPS     H2R      HAL2     0.900000E-01   1.00800           0
      8522 MEMB     64       POPS     H2S      HAL2     0.900000E-01   1.00800           0
      8523 MEMB     64       POPS     C3       CTL2     0.800000E-01   12.0110           0
      8524 MEMB     64       POPS     HX       HAL2     0.900000E-01   1.00800           0
      8525 MEMB     64       POPS     HY       HAL2     0.900000E-01   1.00800           0
      8526 MEMB     64       POPS     O31      OSL     -0.490000       15.9994           0
      8527 MEMB     64       POPS     C31      CL       0.900000       12.0110           0
      8528 MEMB     64       POPS     O32      OBL     -0.630000       15.9994           0
      8529 MEMB     64       POPS     C32      CTL2    -0.220000       12.0110           0
      8530 MEMB     64       POPS     H2X      HAL2     0.900000E-01   1.00800           0
      8531 MEMB     64       POPS     H2Y      HAL2     0.900000E-01   1.00800           0
      8532 MEMB     64       POPS     C23      CTL2    -0.180000       12.0110           0
      8533 MEMB     64       POPS     H3R      HAL2     0.900000E-01   1.00800           0
      8534 MEMB     64       POPS     H3S      HAL2     0.900000E-01   1.00800           0
      8535 MEMB     64       POPS     C24      CTL2    -0.180000       12.0110           0
      8536 MEMB     64       POPS     H4R      HAL2     0.900000E-01   1.00800           0
      8537 MEMB     64       POPS     H4S      HAL2     0.900000E-01   1.00800           0
      8538 MEMB     64       POPS     C25      CTL2    -0.180000       12.0110           0
      8539 MEMB     64       POPS     H5R      HAL2     0.900000E-01   1.00800           0
      8540 MEMB     64       POPS     H5S      HAL2     0.900000E-01   1.00800           0
      8541 MEMB     64       POPS     C26      CTL2    -0.180000       12.0110           0
      8542 MEMB     64       POPS     H6R      HAL2     0.900000E-01   1.00800           0
      8543 MEMB     64       POPS     H6S      HAL2     0.900000E-01   1.00800           0
      8544 MEMB     64       POPS     C27      CTL2    -0.180000       12.0110           0
      8545 MEMB     64       POPS     H7R      HAL2     0.900000E-01   1.00800           0
      8546 MEMB     64       POPS     H7S      HAL2     0.900000E-01   1.00800           0
      8547 MEMB     64       POPS     C28      CTL2    -0.180000       12.0110           0
      8548 MEMB     64       POPS     H8R      HAL2     0.900000E-01   1.00800           0
      8549 MEMB     64       POPS     H8S      HAL2     0.900000E-01   1.00800           0
      8550 MEMB     64       POPS     C29      CEL1    -0.150000       12.0110           0
      8551 MEMB     64       POPS     H91      HEL1     0.150000       1.00800           0
      8552 MEMB     64       POPS     C210     CEL1    -0.150000       12.0110           0
      8553 MEMB     64       POPS     H101     HEL1     0.150000       1.00800           0
      8554 MEMB     64       POPS     C211     CTL2    -0.180000       12.0110           0
      8555 MEMB     64       POPS     H11R     HAL2     0.900000E-01   1.00800           0
      8556 MEMB     64       POPS     H11S     HAL2     0.900000E-01   1.00800           0
      8557 MEMB     64       POPS     C212     CTL2    -0.180000       12.0110           0
      8558 MEMB     64       POPS     H12R     HAL2     0.900000E-01   1.00800           0
      8559 MEMB     64       POPS     H12S     HAL2     0.900000E-01   1.00800           0
      8560 MEMB     64       POPS     C213     CTL2    -0.180000       12.0110           0
      8561 MEMB     64       POPS     H13R     HAL2     0.900000E-01   1.00800           0
      8562 MEMB     64       POPS     H13S     HAL2     0.900000E-01   1.00800           0
      8563 MEMB     64       POPS     C214     CTL2    -0.180000       12.0110           0
      8564 MEMB     64       POPS     H14R     HAL2     0.900000E-01   1.00800           0
      8565 MEMB     64       POPS     H14S     HAL2     0.900000E-01   1.00800           0
      8566 MEMB     64       POPS     C215     CTL2    -0.180000       12.0110           0
      8567 MEMB     64       POPS     H15R     HAL2     0.900000E-01   1.00800           0
      8568 MEMB     64       POPS     H15S     HAL2     0.900000E-01   1.00800           0
      8569 MEMB     64       POPS     C216     CTL2    -0.180000       12.0110           0
      8570 MEMB     64       POPS     H16R     HAL2     0.900000E-01   1.00800           0
      8571 MEMB     64       POPS     H16S     HAL2     0.900000E-01   1.00800           0
      8572 MEMB     64       POPS     C217     CTL2    -0.180000       12.0110           0
      8573 MEMB     64       POPS     H17R     HAL2     0.900000E-01   1.00800           0
      8574 MEMB     64       POPS     H17S     HAL2     0.900000E-01   1.00800           0
      8575 MEMB     64       POPS     C218     CTL3    -0.270000       12.0110           0
      8576 MEMB     64       POPS     H18R     HAL3     0.900000E-01   1.00800           0
      8577 MEMB     64       POPS     H18S     HAL3     0.900000E-01   1.00800           0
      8578 MEMB     64       POPS     H18T     HAL3     0.900000E-01   1.00800           0
      8579 MEMB     64       POPS     C33      CTL2    -0.180000       12.0110           0
      8580 MEMB     64       POPS     H3X      HAL2     0.900000E-01   1.00800           0
      8581 MEMB     64       POPS     H3Y      HAL2     0.900000E-01   1.00800           0
      8582 MEMB     64       POPS     C34      CTL2    -0.180000       12.0110           0
      8583 MEMB     64       POPS     H4X      HAL2     0.900000E-01   1.00800           0
      8584 MEMB     64       POPS     H4Y      HAL2     0.900000E-01   1.00800           0
      8585 MEMB     64       POPS     C35      CTL2    -0.180000       12.0110           0
      8586 MEMB     64       POPS     H5X      HAL2     0.900000E-01   1.00800           0
      8587 MEMB     64       POPS     H5Y      HAL2     0.900000E-01   1.00800           0
      8588 MEMB     64       POPS     C36      CTL2    -0.180000       12.0110           0
      8589 MEMB     64       POPS     H6X      HAL2     0.900000E-01   1.00800           0
      8590 MEMB     64       POPS     H6Y      HAL2     0.900000E-01   1.00800           0
      8591 MEMB     64       POPS     C37      CTL2    -0.180000       12.0110           0
      8592 MEMB     64       POPS     H7X      HAL2     0.900000E-01   1.00800           0
      8593 MEMB     64       POPS     H7Y      HAL2     0.900000E-01   1.00800           0
      8594 MEMB     64       POPS     C38      CTL2    -0.180000       12.0110           0
      8595 MEMB     64       POPS     H8X      HAL2     0.900000E-01   1.00800           0
      8596 MEMB     64       POPS     H8Y      HAL2     0.900000E-01   1.00800           0
      8597 MEMB     64       POPS     C39      CTL2    -0.180000       12.0110           0
      8598 MEMB     64       POPS     H9X      HAL2     0.900000E-01   1.00800           0
      8599 MEMB     64       POPS     H9Y      HAL2     0.900000E-01   1.00800           0
      8600 MEMB     64       POPS     C310     CTL2    -0.180000       12.0110           0
      8601 MEMB     64       POPS     H10X     HAL2     0.900000E-01   1.00800           0
      8602 MEMB     64       POPS     H10Y     HAL2     0.900000E-01   1.00800           0
      8603 MEMB     64       POPS     C311     CTL2    -0.180000       12.0110           0
      8604 MEMB     64       POPS     H11X     HAL2     0.900000E-01   1.00800           0
      8605 MEMB     64       POPS     H11Y     HAL2     0.900000E-01   1.00800           0
      8606 MEMB     64       POPS     C312     CTL2    -0.180000       12.0110           0
      8607 MEMB     64       POPS     H12X     HAL2     0.900000E-01   1.00800           0
      8608 MEMB     64       POPS     H12Y     HAL2     0.900000E-01   1.00800           0
      8609 MEMB     64       POPS     C313     CTL2    -0.180000       12.0110           0
      8610 MEMB     64       POPS     H13X     HAL2     0.900000E-01   1.00800           0
      8611 MEMB     64       POPS     H13Y     HAL2     0.900000E-01   1.00800           0
      8612 MEMB     64       POPS     C314     CTL2    -0.180000       12.0110           0
      8613 MEMB     64       POPS     H14X     HAL2     0.900000E-01   1.00800           0
      8614 MEMB     64       POPS     H14Y     HAL2     0.900000E-01   1.00800           0
      8615 MEMB     64       POPS     C315     CTL2    -0.180000       12.0110           0
      8616 MEMB     64       POPS     H15X     HAL2     0.900000E-01   1.00800           0
      8617 MEMB     64       POPS     H15Y     HAL2     0.900000E-01   1.00800           0
      8618 MEMB     64       POPS     C316     CTL3    -0.270000       12.0110           0
      8619 MEMB     64       POPS     H16X     HAL3     0.900000E-01   1.00800           0
      8620 MEMB     64       POPS     H16Y     HAL3     0.900000E-01   1.00800           0
      8621 MEMB     64       POPS     H16Z     HAL3     0.900000E-01   1.00800           0
      8622 MEMB     65       POPC     N        NTL     -0.600000       14.0070           0
      8623 MEMB     65       POPC     C12      CTL2    -0.100000       12.0110           0
      8624 MEMB     65       POPC     H12A     HL       0.250000       1.00800           0
      8625 MEMB     65       POPC     H12B     HL       0.250000       1.00800           0
      8626 MEMB     65       POPC     C13      CTL5    -0.350000       12.0110           0
      8627 MEMB     65       POPC     H13A     HL       0.250000       1.00800           0
      8628 MEMB     65       POPC     H13B     HL       0.250000       1.00800           0
      8629 MEMB     65       POPC     H13C     HL       0.250000       1.00800           0
      8630 MEMB     65       POPC     C14      CTL5    -0.350000       12.0110           0
      8631 MEMB     65       POPC     H14A     HL       0.250000       1.00800           0
      8632 MEMB     65       POPC     H14B     HL       0.250000       1.00800           0
      8633 MEMB     65       POPC     H14C     HL       0.250000       1.00800           0
      8634 MEMB     65       POPC     C15      CTL5    -0.350000       12.0110           0
      8635 MEMB     65       POPC     H15A     HL       0.250000       1.00800           0
      8636 MEMB     65       POPC     H15B     HL       0.250000       1.00800           0
      8637 MEMB     65       POPC     H15C     HL       0.250000       1.00800           0
      8638 MEMB     65       POPC     C11      CTL2    -0.800000E-01   12.0110           0
      8639 MEMB     65       POPC     H11A     HAL2     0.900000E-01   1.00800           0
      8640 MEMB     65       POPC     H11B     HAL2     0.900000E-01   1.00800           0
      8641 MEMB     65       POPC     P        PL       1.500000       30.9740           0
      8642 MEMB     65       POPC     O13      O2L     -0.780000       15.9994           0
      8643 MEMB     65       POPC     O14      O2L     -0.780000       15.9994           0
      8644 MEMB     65       POPC     O12      OSLP    -0.570000       15.9994           0
      8645 MEMB     65       POPC     O11      OSLP    -0.570000       15.9994           0
      8646 MEMB     65       POPC     C1       CTL2    -0.800000E-01   12.0110           0
      8647 MEMB     65       POPC     HA       HAL2     0.900000E-01   1.00800           0
      8648 MEMB     65       POPC     HB       HAL2     0.900000E-01   1.00800           0
      8649 MEMB     65       POPC     C2       CTL1     0.170000       12.0110           0
      8650 MEMB     65       POPC     HS       HAL1     0.900000E-01   1.00800           0
      8651 MEMB     65       POPC     O21      OSL     -0.490000       15.9994           0
      8652 MEMB     65       POPC     C21      CL       0.900000       12.0110           0
      8653 MEMB     65       POPC     O22      OBL     -0.630000       15.9994           0
      8654 MEMB     65       POPC     C22      CTL2    -0.220000       12.0110           0
      8655 MEMB     65       POPC     H2R      HAL2     0.900000E-01   1.00800           0
      8656 MEMB     65       POPC     H2S      HAL2     0.900000E-01   1.00800           0
      8657 MEMB     65       POPC     C3       CTL2     0.800000E-01   12.0110           0
      8658 MEMB     65       POPC     HX       HAL2     0.900000E-01   1.00800           0
      8659 MEMB     65       POPC     HY       HAL2     0.900000E-01   1.00800           0
      8660 MEMB     65       POPC     O31      OSL     -0.490000       15.9994           0
      8661 MEMB     65       POPC     C31      CL       0.900000       12.0110           0
      8662 MEMB     65       POPC     O32      OBL     -0.630000       15.9994           0
      8663 MEMB     65       POPC     C32      CTL2    -0.220000       12.0110           0
      8664 MEMB     65       POPC     H2X      HAL2     0.900000E-01   1.00800           0
      8665 MEMB     65       POPC     H2Y      HAL2     0.900000E-01   1.00800           0
      8666 MEMB     65       POPC     C23      CTL2    -0.180000       12.0110           0
      8667 MEMB     65       POPC     H3R      HAL2     0.900000E-01   1.00800           0
      8668 MEMB     65       POPC     H3S      HAL2     0.900000E-01   1.00800           0
      8669 MEMB     65       POPC     C24      CTL2    -0.180000       12.0110           0
      8670 MEMB     65       POPC     H4R      HAL2     0.900000E-01   1.00800           0
      8671 MEMB     65       POPC     H4S      HAL2     0.900000E-01   1.00800           0
      8672 MEMB     65       POPC     C25      CTL2    -0.180000       12.0110           0
      8673 MEMB     65       POPC     H5R      HAL2     0.900000E-01   1.00800           0
      8674 MEMB     65       POPC     H5S      HAL2     0.900000E-01   1.00800           0
      8675 MEMB     65       POPC     C26      CTL2    -0.180000       12.0110           0
      8676 MEMB     65       POPC     H6R      HAL2     0.900000E-01   1.00800           0
      8677 MEMB     65       POPC     H6S      HAL2     0.900000E-01   1.00800           0
      8678 MEMB     65       POPC     C27      CTL2    -0.180000       12.0110           0
      8679 MEMB     65       POPC     H7R      HAL2     0.900000E-01   1.00800           0
      8680 MEMB     65       POPC     H7S      HAL2     0.900000E-01   1.00800           0
      8681 MEMB     65       POPC     C28      CTL2    -0.180000       12.0110           0
      8682 MEMB     65       POPC     H8R      HAL2     0.900000E-01   1.00800           0
      8683 MEMB     65       POPC     H8S      HAL2     0.900000E-01   1.00800           0
      8684 MEMB     65       POPC     C29      CEL1    -0.150000       12.0110           0
      8685 MEMB     65       POPC     H91      HEL1     0.150000       1.00800           0
      8686 MEMB     65       POPC     C210     CEL1    -0.150000       12.0110           0
      8687 MEMB     65       POPC     H101     HEL1     0.150000       1.00800           0
      8688 MEMB     65       POPC     C211     CTL2    -0.180000       12.0110           0
      8689 MEMB     65       POPC     H11R     HAL2     0.900000E-01   1.00800           0
      8690 MEMB     65       POPC     H11S     HAL2     0.900000E-01   1.00800           0
      8691 MEMB     65       POPC     C212     CTL2    -0.180000       12.0110           0
      8692 MEMB     65       POPC     H12R     HAL2     0.900000E-01   1.00800           0
      8693 MEMB     65       POPC     H12S     HAL2     0.900000E-01   1.00800           0
      8694 MEMB     65       POPC     C213     CTL2    -0.180000       12.0110           0
      8695 MEMB     65       POPC     H13R     HAL2     0.900000E-01   1.00800           0
      8696 MEMB     65       POPC     H13S     HAL2     0.900000E-01   1.00800           0
      8697 MEMB     65       POPC     C214     CTL2    -0.180000       12.0110           0
      8698 MEMB     65       POPC     H14R     HAL2     0.900000E-01   1.00800           0
      8699 MEMB     65       POPC     H14S     HAL2     0.900000E-01   1.00800           0
      8700 MEMB     65       POPC     C215     CTL2    -0.180000       12.0110           0
      8701 MEMB     65       POPC     H15R     HAL2     0.900000E-01   1.00800           0
      8702 MEMB     65       POPC     H15S     HAL2     0.900000E-01   1.00800           0
      8703 MEMB     65       POPC     C216     CTL2    -0.180000       12.0110           0
      8704 MEMB     65       POPC     H16R     HAL2     0.900000E-01   1.00800           0
      8705 MEMB     65       POPC     H16S     HAL2     0.900000E-01   1.00800           0
      8706 MEMB     65       POPC     C217     CTL2    -0.180000       12.0110           0
      8707 MEMB     65       POPC     H17R     HAL2     0.900000E-01   1.00800           0
      8708 MEMB     65       POPC     H17S     HAL2     0.900000E-01   1.00800           0
      8709 MEMB     65       POPC     C218     CTL3    -0.270000       12.0110           0
      8710 MEMB     65       POPC     H18R     HAL3     0.900000E-01   1.00800           0
      8711 MEMB     65       POPC     H18S     HAL3     0.900000E-01   1.00800           0
      8712 MEMB     65       POPC     H18T     HAL3     0.900000E-01   1.00800           0
      8713 MEMB     65       POPC     C33      CTL2    -0.180000       12.0110           0
      8714 MEMB     65       POPC     H3X      HAL2     0.900000E-01   1.00800           0
      8715 MEMB     65       POPC     H3Y      HAL2     0.900000E-01   1.00800           0
      8716 MEMB     65       POPC     C34      CTL2    -0.180000       12.0110           0
      8717 MEMB     65       POPC     H4X      HAL2     0.900000E-01   1.00800           0
      8718 MEMB     65       POPC     H4Y      HAL2     0.900000E-01   1.00800           0
      8719 MEMB     65       POPC     C35      CTL2    -0.180000       12.0110           0
      8720 MEMB     65       POPC     H5X      HAL2     0.900000E-01   1.00800           0
      8721 MEMB     65       POPC     H5Y      HAL2     0.900000E-01   1.00800           0
      8722 MEMB     65       POPC     C36      CTL2    -0.180000       12.0110           0
      8723 MEMB     65       POPC     H6X      HAL2     0.900000E-01   1.00800           0
      8724 MEMB     65       POPC     H6Y      HAL2     0.900000E-01   1.00800           0
      8725 MEMB     65       POPC     C37      CTL2    -0.180000       12.0110           0
      8726 MEMB     65       POPC     H7X      HAL2     0.900000E-01   1.00800           0
      8727 MEMB     65       POPC     H7Y      HAL2     0.900000E-01   1.00800           0
      8728 MEMB     65       POPC     C38      CTL2    -0.180000       12.0110           0
      8729 MEMB     65       POPC     H8X      HAL2     0.900000E-01   1.00800           0
      8730 MEMB     65       POPC     H8Y      HAL2     0.900000E-01   1.00800           0
      8731 MEMB     65       POPC     C39      CTL2    -0.180000       12.0110           0
      8732 MEMB     65       POPC     H9X      HAL2     0.900000E-01   1.00800           0
      8733 MEMB     65       POPC     H9Y      HAL2     0.900000E-01   1.00800           0
      8734 MEMB     65       POPC     C310     CTL2    -0.180000       12.0110           0
      8735 MEMB     65       POPC     H10X     HAL2     0.900000E-01   1.00800           0
      8736 MEMB     65       POPC     H10Y     HAL2     0.900000E-01   1.00800           0
      8737 MEMB     65       POPC     C311     CTL2    -0.180000       12.0110           0
      8738 MEMB     65       POPC     H11X     HAL2     0.900000E-01   1.00800           0
      8739 MEMB     65       POPC     H11Y     HAL2     0.900000E-01   1.00800           0
      8740 MEMB     65       POPC     C312     CTL2    -0.180000       12.0110           0
      8741 MEMB     65       POPC     H12X     HAL2     0.900000E-01   1.00800           0
      8742 MEMB     65       POPC     H12Y     HAL2     0.900000E-01   1.00800           0
      8743 MEMB     65       POPC     C313     CTL2    -0.180000       12.0110           0
      8744 MEMB     65       POPC     H13X     HAL2     0.900000E-01   1.00800           0
      8745 MEMB     65       POPC     H13Y     HAL2     0.900000E-01   1.00800           0
      8746 MEMB     65       POPC     C314     CTL2    -0.180000       12.0110           0
      8747 MEMB     65       POPC     H14X     HAL2     0.900000E-01   1.00800           0
      8748 MEMB     65       POPC     H14Y     HAL2     0.900000E-01   1.00800           0
      8749 MEMB     65       POPC     C315     CTL2    -0.180000       12.0110           0
      8750 MEMB     65       POPC     H15X     HAL2     0.900000E-01   1.00800           0
      8751 MEMB     65       POPC     H15Y     HAL2     0.900000E-01   1.00800           0
      8752 MEMB     65       POPC     C316     CTL3    -0.270000       12.0110           0
      8753 MEMB     65       POPC     H16X     HAL3     0.900000E-01   1.00800           0
      8754 MEMB     65       POPC     H16Y     HAL3     0.900000E-01   1.00800           0
      8755 MEMB     65       POPC     H16Z     HAL3     0.900000E-01   1.00800           0
      8756 MEMB     66       POPS     N        NH3L    -0.300000       14.0070           0
      8757 MEMB     66       POPS     HN1      HCL      0.330000       1.00800           0
      8758 MEMB     66       POPS     HN2      HCL      0.330000       1.00800           0
      8759 MEMB     66       POPS     HN3      HCL      0.330000       1.00800           0
      8760 MEMB     66       POPS     C12      CTL1     0.210000       12.0110           0
      8761 MEMB     66       POPS     H12A     HBL      0.100000       1.00800           0
      8762 MEMB     66       POPS     C13      CCL      0.340000       12.0110           0
      8763 MEMB     66       POPS     O13A     OCL     -0.670000       15.9994           0
      8764 MEMB     66       POPS     O13B     OCL     -0.670000       15.9994           0
      8765 MEMB     66       POPS     C11      CTL2    -0.800000E-01   12.0110           0
      8766 MEMB     66       POPS     H11A     HAL2     0.900000E-01   1.00800           0
      8767 MEMB     66       POPS     H11B     HAL2     0.900000E-01   1.00800           0
      8768 MEMB     66       POPS     P        PL       1.500000       30.9740           0
      8769 MEMB     66       POPS     O13      O2L     -0.780000       15.9994           0
      8770 MEMB     66       POPS     O14      O2L     -0.780000       15.9994           0
      8771 MEMB     66       POPS     O12      OSLP    -0.570000       15.9994           0
      8772 MEMB     66       POPS     O11      OSLP    -0.570000       15.9994           0
      8773 MEMB     66       POPS     C1       CTL2    -0.800000E-01   12.0110           0
      8774 MEMB     66       POPS     HA       HAL2     0.900000E-01   1.00800           0
      8775 MEMB     66       POPS     HB       HAL2     0.900000E-01   1.00800           0
      8776 MEMB     66       POPS     C2       CTL1     0.170000       12.0110           0
      8777 MEMB     66       POPS     HS       HAL1     0.900000E-01   1.00800           0
      8778 MEMB     66       POPS     O21      OSL     -0.490000       15.9994           0
      8779 MEMB     66       POPS     C21      CL       0.900000       12.0110           0
      8780 MEMB     66       POPS     O22      OBL     -0.630000       15.9994           0
      8781 MEMB     66       POPS     C22      CTL2    -0.220000       12.0110           0
      8782 MEMB     66       POPS     H2R      HAL2     0.900000E-01   1.00800           0
      8783 MEMB     66       POPS     H2S      HAL2     0.900000E-01   1.00800           0
      8784 MEMB     66       POPS     C3       CTL2     0.800000E-01   12.0110           0
      8785 MEMB     66       POPS     HX       HAL2     0.900000E-01   1.00800           0
      8786 MEMB     66       POPS     HY       HAL2     0.900000E-01   1.00800           0
      8787 MEMB     66       POPS     O31      OSL     -0.490000       15.9994           0
      8788 MEMB     66       POPS     C31      CL       0.900000       12.0110           0
      8789 MEMB     66       POPS     O32      OBL     -0.630000       15.9994           0
      8790 MEMB     66       POPS     C32      CTL2    -0.220000       12.0110           0
      8791 MEMB     66       POPS     H2X      HAL2     0.900000E-01   1.00800           0
      8792 MEMB     66       POPS     H2Y      HAL2     0.900000E-01   1.00800           0
      8793 MEMB     66       POPS     C23      CTL2    -0.180000       12.0110           0
      8794 MEMB     66       POPS     H3R      HAL2     0.900000E-01   1.00800           0
      8795 MEMB     66       POPS     H3S      HAL2     0.900000E-01   1.00800           0
      8796 MEMB     66       POPS     C24      CTL2    -0.180000       12.0110           0
      8797 MEMB     66       POPS     H4R      HAL2     0.900000E-01   1.00800           0
      8798 MEMB     66       POPS     H4S      HAL2     0.900000E-01   1.00800           0
      8799 MEMB     66       POPS     C25      CTL2    -0.180000       12.0110           0
      8800 MEMB     66       POPS     H5R      HAL2     0.900000E-01   1.00800           0
      8801 MEMB     66       POPS     H5S      HAL2     0.900000E-01   1.00800           0
      8802 MEMB     66       POPS     C26      CTL2    -0.180000       12.0110           0
      8803 MEMB     66       POPS     H6R      HAL2     0.900000E-01   1.00800           0
      8804 MEMB     66       POPS     H6S      HAL2     0.900000E-01   1.00800           0
      8805 MEMB     66       POPS     C27      CTL2    -0.180000       12.0110           0
      8806 MEMB     66       POPS     H7R      HAL2     0.900000E-01   1.00800           0
      8807 MEMB     66       POPS     H7S      HAL2     0.900000E-01   1.00800           0
      8808 MEMB     66       POPS     C28      CTL2    -0.180000       12.0110           0
      8809 MEMB     66       POPS     H8R      HAL2     0.900000E-01   1.00800           0
      8810 MEMB     66       POPS     H8S      HAL2     0.900000E-01   1.00800           0
      8811 MEMB     66       POPS     C29      CEL1    -0.150000       12.0110           0
      8812 MEMB     66       POPS     H91      HEL1     0.150000       1.00800           0
      8813 MEMB     66       POPS     C210     CEL1    -0.150000       12.0110           0
      8814 MEMB     66       POPS     H101     HEL1     0.150000       1.00800           0
      8815 MEMB     66       POPS     C211     CTL2    -0.180000       12.0110           0
      8816 MEMB     66       POPS     H11R     HAL2     0.900000E-01   1.00800           0
      8817 MEMB     66       POPS     H11S     HAL2     0.900000E-01   1.00800           0
      8818 MEMB     66       POPS     C212     CTL2    -0.180000       12.0110           0
      8819 MEMB     66       POPS     H12R     HAL2     0.900000E-01   1.00800           0
      8820 MEMB     66       POPS     H12S     HAL2     0.900000E-01   1.00800           0
      8821 MEMB     66       POPS     C213     CTL2    -0.180000       12.0110           0
      8822 MEMB     66       POPS     H13R     HAL2     0.900000E-01   1.00800           0
      8823 MEMB     66       POPS     H13S     HAL2     0.900000E-01   1.00800           0
      8824 MEMB     66       POPS     C214     CTL2    -0.180000       12.0110           0
      8825 MEMB     66       POPS     H14R     HAL2     0.900000E-01   1.00800           0
      8826 MEMB     66       POPS     H14S     HAL2     0.900000E-01   1.00800           0
      8827 MEMB     66       POPS     C215     CTL2    -0.180000       12.0110           0
      8828 MEMB     66       POPS     H15R     HAL2     0.900000E-01   1.00800           0
      8829 MEMB     66       POPS     H15S     HAL2     0.900000E-01   1.00800           0
      8830 MEMB     66       POPS     C216     CTL2    -0.180000       12.0110           0
      8831 MEMB     66       POPS     H16R     HAL2     0.900000E-01   1.00800           0
      8832 MEMB     66       POPS     H16S     HAL2     0.900000E-01   1.00800           0
      8833 MEMB     66       POPS     C217     CTL2    -0.180000       12.0110           0
      8834 MEMB     66       POPS     H17R     HAL2     0.900000E-01   1.00800           0
      8835 MEMB     66       POPS     H17S     HAL2     0.900000E-01   1.00800           0
      8836 MEMB     66       POPS     C218     CTL3    -0.270000       12.0110           0
      8837 MEMB     66       POPS     H18R     HAL3     0.900000E-01   1.00800           0
      8838 MEMB     66       POPS     H18S     HAL3     0.900000E-01   1.00800           0
      8839 MEMB     66       POPS     H18T     HAL3     0.900000E-01   1.00800           0
      8840 MEMB     66       POPS     C33      CTL2    -0.180000       12.0110           0
      8841 MEMB     66       POPS     H3X      HAL2     0.900000E-01   1.00800           0
      8842 MEMB     66       POPS     H3Y      HAL2     0.900000E-01   1.00800           0
      8843 MEMB     66       POPS     C34      CTL2    -0.180000       12.0110           0
      8844 MEMB     66       POPS     H4X      HAL2     0.900000E-01   1.00800           0
      8845 MEMB     66       POPS     H4Y      HAL2     0.900000E-01   1.00800           0
      8846 MEMB     66       POPS     C35      CTL2    -0.180000       12.0110           0
      8847 MEMB     66       POPS     H5X      HAL2     0.900000E-01   1.00800           0
      8848 MEMB     66       POPS     H5Y      HAL2     0.900000E-01   1.00800           0
      8849 MEMB     66       POPS     C36      CTL2    -0.180000       12.0110           0
      8850 MEMB     66       POPS     H6X      HAL2     0.900000E-01   1.00800           0
      8851 MEMB     66       POPS     H6Y      HAL2     0.900000E-01   1.00800           0
      8852 MEMB     66       POPS     C37      CTL2    -0.180000       12.0110           0
      8853 MEMB     66       POPS     H7X      HAL2     0.900000E-01   1.00800           0
      8854 MEMB     66       POPS     H7Y      HAL2     0.900000E-01   1.00800           0
      8855 MEMB     66       POPS     C38      CTL2    -0.180000       12.0110           0
      8856 MEMB     66       POPS     H8X      HAL2     0.900000E-01   1.00800           0
      8857 MEMB     66       POPS     H8Y      HAL2     0.900000E-01   1.00800           0
      8858 MEMB     66       POPS     C39      CTL2    -0.180000       12.0110           0
      8859 MEMB     66       POPS     H9X      HAL2     0.900000E-01   1.00800           0
      8860 MEMB     66       POPS     H9Y      HAL2     0.900000E-01   1.00800           0
      8861 MEMB     66       POPS     C310     CTL2    -0.180000       12.0110           0
      8862 MEMB     66       POPS     H10X     HAL2     0.900000E-01   1.00800           0
      8863 MEMB     66       POPS     H10Y     HAL2     0.900000E-01   1.00800           0
      8864 MEMB     66       POPS     C311     CTL2    -0.180000       12.0110           0
      8865 MEMB     66       POPS     H11X     HAL2     0.900000E-01   1.00800           0
      8866 MEMB     66       POPS     H11Y     HAL2     0.900000E-01   1.00800           0
      8867 MEMB     66       POPS     C312     CTL2    -0.180000       12.0110           0
      8868 MEMB     66       POPS     H12X     HAL2     0.900000E-01   1.00800           0
      8869 MEMB     66       POPS     H12Y     HAL2     0.900000E-01   1.00800           0
      8870 MEMB     66       POPS     C313     CTL2    -0.180000       12.0110           0
      8871 MEMB     66       POPS     H13X     HAL2     0.900000E-01   1.00800           0
      8872 MEMB     66       POPS     H13Y     HAL2     0.900000E-01   1.00800           0
      8873 MEMB     66       POPS     C314     CTL2    -0.180000       12.0110           0
      8874 MEMB     66       POPS     H14X     HAL2     0.900000E-01   1.00800           0
      8875 MEMB     66       POPS     H14Y     HAL2     0.900000E-01   1.00800           0
      8876 MEMB     66       POPS     C315     CTL2    -0.180000       12.0110           0
      8877 MEMB     66       POPS     H15X     HAL2     0.900000E-01   1.00800           0
      8878 MEMB     66       POPS     H15Y     HAL2     0.900000E-01   1.00800           0
      8879 MEMB     66       POPS     C316     CTL3    -0.270000       12.0110           0
      8880 MEMB     66       POPS     H16X     HAL3     0.900000E-01   1.00800           0
      8881 MEMB     66       POPS     H16Y     HAL3     0.900000E-01   1.00800           0
      8882 MEMB     66       POPS     H16Z     HAL3     0.900000E-01   1.00800           0
      8883 MEMB     67       POPC     N        NTL     -0.600000       14.0070           0
      8884 MEMB     67       POPC     C12      CTL2    -0.100000       12.0110           0
      8885 MEMB     67       POPC     H12A     HL       0.250000       1.00800           0
      8886 MEMB     67       POPC     H12B     HL       0.250000       1.00800           0
      8887 MEMB     67       POPC     C13      CTL5    -0.350000       12.0110           0
      8888 MEMB     67       POPC     H13A     HL       0.250000       1.00800           0
      8889 MEMB     67       POPC     H13B     HL       0.250000       1.00800           0
      8890 MEMB     67       POPC     H13C     HL       0.250000       1.00800           0
      8891 MEMB     67       POPC     C14      CTL5    -0.350000       12.0110           0
      8892 MEMB     67       POPC     H14A     HL       0.250000       1.00800           0
      8893 MEMB     67       POPC     H14B     HL       0.250000       1.00800           0
      8894 MEMB     67       POPC     H14C     HL       0.250000       1.00800           0
      8895 MEMB     67       POPC     C15      CTL5    -0.350000       12.0110           0
      8896 MEMB     67       POPC     H15A     HL       0.250000       1.00800           0
      8897 MEMB     67       POPC     H15B     HL       0.250000       1.00800           0
      8898 MEMB     67       POPC     H15C     HL       0.250000       1.00800           0
      8899 MEMB     67       POPC     C11      CTL2    -0.800000E-01   12.0110           0
      8900 MEMB     67       POPC     H11A     HAL2     0.900000E-01   1.00800           0
      8901 MEMB     67       POPC     H11B     HAL2     0.900000E-01   1.00800           0
      8902 MEMB     67       POPC     P        PL       1.500000       30.9740           0
      8903 MEMB     67       POPC     O13      O2L     -0.780000       15.9994           0
      8904 MEMB     67       POPC     O14      O2L     -0.780000       15.9994           0
      8905 MEMB     67       POPC     O12      OSLP    -0.570000       15.9994           0
      8906 MEMB     67       POPC     O11      OSLP    -0.570000       15.9994           0
      8907 MEMB     67       POPC     C1       CTL2    -0.800000E-01   12.0110           0
      8908 MEMB     67       POPC     HA       HAL2     0.900000E-01   1.00800           0
      8909 MEMB     67       POPC     HB       HAL2     0.900000E-01   1.00800           0
      8910 MEMB     67       POPC     C2       CTL1     0.170000       12.0110           0
      8911 MEMB     67       POPC     HS       HAL1     0.900000E-01   1.00800           0
      8912 MEMB     67       POPC     O21      OSL     -0.490000       15.9994           0
      8913 MEMB     67       POPC     C21      CL       0.900000       12.0110           0
      8914 MEMB     67       POPC     O22      OBL     -0.630000       15.9994           0
      8915 MEMB     67       POPC     C22      CTL2    -0.220000       12.0110           0
      8916 MEMB     67       POPC     H2R      HAL2     0.900000E-01   1.00800           0
      8917 MEMB     67       POPC     H2S      HAL2     0.900000E-01   1.00800           0
      8918 MEMB     67       POPC     C3       CTL2     0.800000E-01   12.0110           0
      8919 MEMB     67       POPC     HX       HAL2     0.900000E-01   1.00800           0
      8920 MEMB     67       POPC     HY       HAL2     0.900000E-01   1.00800           0
      8921 MEMB     67       POPC     O31      OSL     -0.490000       15.9994           0
      8922 MEMB     67       POPC     C31      CL       0.900000       12.0110           0
      8923 MEMB     67       POPC     O32      OBL     -0.630000       15.9994           0
      8924 MEMB     67       POPC     C32      CTL2    -0.220000       12.0110           0
      8925 MEMB     67       POPC     H2X      HAL2     0.900000E-01   1.00800           0
      8926 MEMB     67       POPC     H2Y      HAL2     0.900000E-01   1.00800           0
      8927 MEMB     67       POPC     C23      CTL2    -0.180000       12.0110           0
      8928 MEMB     67       POPC     H3R      HAL2     0.900000E-01   1.00800           0
      8929 MEMB     67       POPC     H3S      HAL2     0.900000E-01   1.00800           0
      8930 MEMB     67       POPC     C24      CTL2    -0.180000       12.0110           0
      8931 MEMB     67       POPC     H4R      HAL2     0.900000E-01   1.00800           0
      8932 MEMB     67       POPC     H4S      HAL2     0.900000E-01   1.00800           0
      8933 MEMB     67       POPC     C25      CTL2    -0.180000       12.0110           0
      8934 MEMB     67       POPC     H5R      HAL2     0.900000E-01   1.00800           0
      8935 MEMB     67       POPC     H5S      HAL2     0.900000E-01   1.00800           0
      8936 MEMB     67       POPC     C26      CTL2    -0.180000       12.0110           0
      8937 MEMB     67       POPC     H6R      HAL2     0.900000E-01   1.00800           0
      8938 MEMB     67       POPC     H6S      HAL2     0.900000E-01   1.00800           0
      8939 MEMB     67       POPC     C27      CTL2    -0.180000       12.0110           0
      8940 MEMB     67       POPC     H7R      HAL2     0.900000E-01   1.00800           0
      8941 MEMB     67       POPC     H7S      HAL2     0.900000E-01   1.00800           0
      8942 MEMB     67       POPC     C28      CTL2    -0.180000       12.0110           0
      8943 MEMB     67       POPC     H8R      HAL2     0.900000E-01   1.00800           0
      8944 MEMB     67       POPC     H8S      HAL2     0.900000E-01   1.00800           0
      8945 MEMB     67       POPC     C29      CEL1    -0.150000       12.0110           0
      8946 MEMB     67       POPC     H91      HEL1     0.150000       1.00800           0
      8947 MEMB     67       POPC     C210     CEL1    -0.150000       12.0110           0
      8948 MEMB     67       POPC     H101     HEL1     0.150000       1.00800           0
      8949 MEMB     67       POPC     C211     CTL2    -0.180000       12.0110           0
      8950 MEMB     67       POPC     H11R     HAL2     0.900000E-01   1.00800           0
      8951 MEMB     67       POPC     H11S     HAL2     0.900000E-01   1.00800           0
      8952 MEMB     67       POPC     C212     CTL2    -0.180000       12.0110           0
      8953 MEMB     67       POPC     H12R     HAL2     0.900000E-01   1.00800           0
      8954 MEMB     67       POPC     H12S     HAL2     0.900000E-01   1.00800           0
      8955 MEMB     67       POPC     C213     CTL2    -0.180000       12.0110           0
      8956 MEMB     67       POPC     H13R     HAL2     0.900000E-01   1.00800           0
      8957 MEMB     67       POPC     H13S     HAL2     0.900000E-01   1.00800           0
      8958 MEMB     67       POPC     C214     CTL2    -0.180000       12.0110           0
      8959 MEMB     67       POPC     H14R     HAL2     0.900000E-01   1.00800           0
      8960 MEMB     67       POPC     H14S     HAL2     0.900000E-01   1.00800           0
      8961 MEMB     67       POPC     C215     CTL2    -0.180000       12.0110           0
      8962 MEMB     67       POPC     H15R     HAL2     0.900000E-01   1.00800           0
      8963 MEMB     67       POPC     H15S     HAL2     0.900000E-01   1.00800           0
      8964 MEMB     67       POPC     C216     CTL2    -0.180000       12.0110           0
      8965 MEMB     67       POPC     H16R     HAL2     0.900000E-01   1.00800           0
      8966 MEMB     67       POPC     H16S     HAL2     0.900000E-01   1.00800           0
      8967 MEMB     67       POPC     C217     CTL2    -0.180000       12.0110           0
      8968 MEMB     67       POPC     H17R     HAL2     0.900000E-01   1.00800           0
      8969 MEMB     67       POPC     H17S     HAL2     0.900000E-01   1.00800           0
      8970 MEMB     67       POPC     C218     CTL3    -0.270000       12.0110           0
      8971 MEMB     67       POPC     H18R     HAL3     0.900000E-01   1.00800           0
      8972 MEMB     67       POPC     H18S     HAL3     0.900000E-01   1.00800           0
      8973 MEMB     67       POPC     H18T     HAL3     0.900000E-01   1.00800           0
      8974 MEMB     67       POPC     C33      CTL2    -0.180000       12.0110           0
      8975 MEMB     67       POPC     H3X      HAL2     0.900000E-01   1.00800           0
      8976 MEMB     67       POPC     H3Y      HAL2     0.900000E-01   1.00800           0
      8977 MEMB     67       POPC     C34      CTL2    -0.180000       12.0110           0
      8978 MEMB     67       POPC     H4X      HAL2     0.900000E-01   1.00800           0
      8979 MEMB     67       POPC     H4Y      HAL2     0.900000E-01   1.00800           0
      8980 MEMB     67       POPC     C35      CTL2    -0.180000       12.0110           0
      8981 MEMB     67       POPC     H5X      HAL2     0.900000E-01   1.00800           0
      8982 MEMB     67       POPC     H5Y      HAL2     0.900000E-01   1.00800           0
      8983 MEMB     67       POPC     C36      CTL2    -0.180000       12.0110           0
      8984 MEMB     67       POPC     H6X      HAL2     0.900000E-01   1.00800           0
      8985 MEMB     67       POPC     H6Y      HAL2     0.900000E-01   1.00800           0
      8986 MEMB     67       POPC     C37      CTL2    -0.180000       12.0110           0
      8987 MEMB     67       POPC     H7X      HAL2     0.900000E-01   1.00800           0
      8988 MEMB     67       POPC     H7Y      HAL2     0.900000E-01   1.00800           0
      8989 MEMB     67       POPC     C38      CTL2    -0.180000       12.0110           0
      8990 MEMB     67       POPC     H8X      HAL2     0.900000E-01   1.00800           0
      8991 MEMB     67       POPC     H8Y      HAL2     0.900000E-01   1.00800           0
      8992 MEMB     67       POPC     C39      CTL2    -0.180000       12.0110           0
      8993 MEMB     67       POPC     H9X      HAL2     0.900000E-01   1.00800           0
      8994 MEMB     67       POPC     H9Y      HAL2     0.900000E-01   1.00800           0
      8995 MEMB     67       POPC     C310     CTL2    -0.180000       12.0110           0
      8996 MEMB     67       POPC     H10X     HAL2     0.900000E-01   1.00800           0
      8997 MEMB     67       POPC     H10Y     HAL2     0.900000E-01   1.00800           0
      8998 MEMB     67       POPC     C311     CTL2    -0.180000       12.0110           0
      8999 MEMB     67       POPC     H11X     HAL2     0.900000E-01   1.00800           0
      9000 MEMB     67       POPC     H11Y     HAL2     0.900000E-01   1.00800           0
      9001 MEMB     67       POPC     C312     CTL2    -0.180000       12.0110           0
      9002 MEMB     67       POPC     H12X     HAL2     0.900000E-01   1.00800           0
      9003 MEMB     67       POPC     H12Y     HAL2     0.900000E-01   1.00800           0
      9004 MEMB     67       POPC     C313     CTL2    -0.180000       12.0110           0
      9005 MEMB     67       POPC     H13X     HAL2     0.900000E-01   1.00800           0
      9006 MEMB     67       POPC     H13Y     HAL2     0.900000E-01   1.00800           0
      9007 MEMB     67       POPC     C314     CTL2    -0.180000       12.0110           0
      9008 MEMB     67       POPC     H14X     HAL2     0.900000E-01   1.00800           0
      9009 MEMB     67       POPC     H14Y     HAL2     0.900000E-01   1.00800           0
      9010 MEMB     67       POPC     C315     CTL2    -0.180000       12.0110           0
      9011 MEMB     67       POPC     H15X     HAL2     0.900000E-01   1.00800           0
      9012 MEMB     67       POPC     H15Y     HAL2     0.900000E-01   1.00800           0
      9013 MEMB     67       POPC     C316     CTL3    -0.270000       12.0110           0
      9014 MEMB     67       POPC     H16X     HAL3     0.900000E-01   1.00800           0
      9015 MEMB     67       POPC     H16Y     HAL3     0.900000E-01   1.00800           0
      9016 MEMB     67       POPC     H16Z     HAL3     0.900000E-01   1.00800           0
      9017 MEMB     68       POPC     N        NTL     -0.600000       14.0070           0
      9018 MEMB     68       POPC     C12      CTL2    -0.100000       12.0110           0
      9019 MEMB     68       POPC     H12A     HL       0.250000       1.00800           0
      9020 MEMB     68       POPC     H12B     HL       0.250000       1.00800           0
      9021 MEMB     68       POPC     C13      CTL5    -0.350000       12.0110           0
      9022 MEMB     68       POPC     H13A     HL       0.250000       1.00800           0
      9023 MEMB     68       POPC     H13B     HL       0.250000       1.00800           0
      9024 MEMB     68       POPC     H13C     HL       0.250000       1.00800           0
      9025 MEMB     68       POPC     C14      CTL5    -0.350000       12.0110           0
      9026 MEMB     68       POPC     H14A     HL       0.250000       1.00800           0
      9027 MEMB     68       POPC     H14B     HL       0.250000       1.00800           0
      9028 MEMB     68       POPC     H14C     HL       0.250000       1.00800           0
      9029 MEMB     68       POPC     C15      CTL5    -0.350000       12.0110           0
      9030 MEMB     68       POPC     H15A     HL       0.250000       1.00800           0
      9031 MEMB     68       POPC     H15B     HL       0.250000       1.00800           0
      9032 MEMB     68       POPC     H15C     HL       0.250000       1.00800           0
      9033 MEMB     68       POPC     C11      CTL2    -0.800000E-01   12.0110           0
      9034 MEMB     68       POPC     H11A     HAL2     0.900000E-01   1.00800           0
      9035 MEMB     68       POPC     H11B     HAL2     0.900000E-01   1.00800           0
      9036 MEMB     68       POPC     P        PL       1.500000       30.9740           0
      9037 MEMB     68       POPC     O13      O2L     -0.780000       15.9994           0
      9038 MEMB     68       POPC     O14      O2L     -0.780000       15.9994           0
      9039 MEMB     68       POPC     O12      OSLP    -0.570000       15.9994           0
      9040 MEMB     68       POPC     O11      OSLP    -0.570000       15.9994           0
      9041 MEMB     68       POPC     C1       CTL2    -0.800000E-01   12.0110           0
      9042 MEMB     68       POPC     HA       HAL2     0.900000E-01   1.00800           0
      9043 MEMB     68       POPC     HB       HAL2     0.900000E-01   1.00800           0
      9044 MEMB     68       POPC     C2       CTL1     0.170000       12.0110           0
      9045 MEMB     68       POPC     HS       HAL1     0.900000E-01   1.00800           0
      9046 MEMB     68       POPC     O21      OSL     -0.490000       15.9994           0
      9047 MEMB     68       POPC     C21      CL       0.900000       12.0110           0
      9048 MEMB     68       POPC     O22      OBL     -0.630000       15.9994           0
      9049 MEMB     68       POPC     C22      CTL2    -0.220000       12.0110           0
      9050 MEMB     68       POPC     H2R      HAL2     0.900000E-01   1.00800           0
      9051 MEMB     68       POPC     H2S      HAL2     0.900000E-01   1.00800           0
      9052 MEMB     68       POPC     C3       CTL2     0.800000E-01   12.0110           0
      9053 MEMB     68       POPC     HX       HAL2     0.900000E-01   1.00800           0
      9054 MEMB     68       POPC     HY       HAL2     0.900000E-01   1.00800           0
      9055 MEMB     68       POPC     O31      OSL     -0.490000       15.9994           0
      9056 MEMB     68       POPC     C31      CL       0.900000       12.0110           0
      9057 MEMB     68       POPC     O32      OBL     -0.630000       15.9994           0
      9058 MEMB     68       POPC     C32      CTL2    -0.220000       12.0110           0
      9059 MEMB     68       POPC     H2X      HAL2     0.900000E-01   1.00800           0
      9060 MEMB     68       POPC     H2Y      HAL2     0.900000E-01   1.00800           0
      9061 MEMB     68       POPC     C23      CTL2    -0.180000       12.0110           0
      9062 MEMB     68       POPC     H3R      HAL2     0.900000E-01   1.00800           0
      9063 MEMB     68       POPC     H3S      HAL2     0.900000E-01   1.00800           0
      9064 MEMB     68       POPC     C24      CTL2    -0.180000       12.0110           0
      9065 MEMB     68       POPC     H4R      HAL2     0.900000E-01   1.00800           0
      9066 MEMB     68       POPC     H4S      HAL2     0.900000E-01   1.00800           0
      9067 MEMB     68       POPC     C25      CTL2    -0.180000       12.0110           0
      9068 MEMB     68       POPC     H5R      HAL2     0.900000E-01   1.00800           0
      9069 MEMB     68       POPC     H5S      HAL2     0.900000E-01   1.00800           0
      9070 MEMB     68       POPC     C26      CTL2    -0.180000       12.0110           0
      9071 MEMB     68       POPC     H6R      HAL2     0.900000E-01   1.00800           0
      9072 MEMB     68       POPC     H6S      HAL2     0.900000E-01   1.00800           0
      9073 MEMB     68       POPC     C27      CTL2    -0.180000       12.0110           0
      9074 MEMB     68       POPC     H7R      HAL2     0.900000E-01   1.00800           0
      9075 MEMB     68       POPC     H7S      HAL2     0.900000E-01   1.00800           0
      9076 MEMB     68       POPC     C28      CTL2    -0.180000       12.0110           0
      9077 MEMB     68       POPC     H8R      HAL2     0.900000E-01   1.00800           0
      9078 MEMB     68       POPC     H8S      HAL2     0.900000E-01   1.00800           0
      9079 MEMB     68       POPC     C29      CEL1    -0.150000       12.0110           0
      9080 MEMB     68       POPC     H91      HEL1     0.150000       1.00800           0
      9081 MEMB     68       POPC     C210     CEL1    -0.150000       12.0110           0
      9082 MEMB     68       POPC     H101     HEL1     0.150000       1.00800           0
      9083 MEMB     68       POPC     C211     CTL2    -0.180000       12.0110           0
      9084 MEMB     68       POPC     H11R     HAL2     0.900000E-01   1.00800           0
      9085 MEMB     68       POPC     H11S     HAL2     0.900000E-01   1.00800           0
      9086 MEMB     68       POPC     C212     CTL2    -0.180000       12.0110           0
      9087 MEMB     68       POPC     H12R     HAL2     0.900000E-01   1.00800           0
      9088 MEMB     68       POPC     H12S     HAL2     0.900000E-01   1.00800           0
      9089 MEMB     68       POPC     C213     CTL2    -0.180000       12.0110           0
      9090 MEMB     68       POPC     H13R     HAL2     0.900000E-01   1.00800           0
      9091 MEMB     68       POPC     H13S     HAL2     0.900000E-01   1.00800           0
      9092 MEMB     68       POPC     C214     CTL2    -0.180000       12.0110           0
      9093 MEMB     68       POPC     H14R     HAL2     0.900000E-01   1.00800           0
      9094 MEMB     68       POPC     H14S     HAL2     0.900000E-01   1.00800           0
      9095 MEMB     68       POPC     C215     CTL2    -0.180000       12.0110           0
      9096 MEMB     68       POPC     H15R     HAL2     0.900000E-01   1.00800           0
      9097 MEMB     68       POPC     H15S     HAL2     0.900000E-01   1.00800           0
      9098 MEMB     68       POPC     C216     CTL2    -0.180000       12.0110           0
      9099 MEMB     68       POPC     H16R     HAL2     0.900000E-01   1.00800           0
      9100 MEMB     68       POPC     H16S     HAL2     0.900000E-01   1.00800           0
      9101 MEMB     68       POPC     C217     CTL2    -0.180000       12.0110           0
      9102 MEMB     68       POPC     H17R     HAL2     0.900000E-01   1.00800           0
      9103 MEMB     68       POPC     H17S     HAL2     0.900000E-01   1.00800           0
      9104 MEMB     68       POPC     C218     CTL3    -0.270000       12.0110           0
      9105 MEMB     68       POPC     H18R     HAL3     0.900000E-01   1.00800           0
      9106 MEMB     68       POPC     H18S     HAL3     0.900000E-01   1.00800           0
      9107 MEMB     68       POPC     H18T     HAL3     0.900000E-01   1.00800           0
      9108 MEMB     68       POPC     C33      CTL2    -0.180000       12.0110           0
      9109 MEMB     68       POPC     H3X      HAL2     0.900000E-01   1.00800           0
      9110 MEMB     68       POPC     H3Y      HAL2     0.900000E-01   1.00800           0
      9111 MEMB     68       POPC     C34      CTL2    -0.180000       12.0110           0
      9112 MEMB     68       POPC     H4X      HAL2     0.900000E-01   1.00800           0
      9113 MEMB     68       POPC     H4Y      HAL2     0.900000E-01   1.00800           0
      9114 MEMB     68       POPC     C35      CTL2    -0.180000       12.0110           0
      9115 MEMB     68       POPC     H5X      HAL2     0.900000E-01   1.00800           0
      9116 MEMB     68       POPC     H5Y      HAL2     0.900000E-01   1.00800           0
      9117 MEMB     68       POPC     C36      CTL2    -0.180000       12.0110           0
      9118 MEMB     68       POPC     H6X      HAL2     0.900000E-01   1.00800           0
      9119 MEMB     68       POPC     H6Y      HAL2     0.900000E-01   1.00800           0
      9120 MEMB     68       POPC     C37      CTL2    -0.180000       12.0110           0
      9121 MEMB     68       POPC     H7X      HAL2     0.900000E-01   1.00800           0
      9122 MEMB     68       POPC     H7Y      HAL2     0.900000E-01   1.00800           0
      9123 MEMB     68       POPC     C38      CTL2    -0.180000       12.0110           0
      9124 MEMB     68       POPC     H8X      HAL2     0.900000E-01   1.00800           0
      9125 MEMB     68       POPC     H8Y      HAL2     0.900000E-01   1.00800           0
      9126 MEMB     68       POPC     C39      CTL2    -0.180000       12.0110           0
      9127 MEMB     68       POPC     H9X      HAL2     0.900000E-01   1.00800           0
      9128 MEMB     68       POPC     H9Y      HAL2     0.900000E-01   1.00800           0
      9129 MEMB     68       POPC     C310     CTL2    -0.180000       12.0110           0
      9130 MEMB     68       POPC     H10X     HAL2     0.900000E-01   1.00800           0
      9131 MEMB     68       POPC     H10Y     HAL2     0.900000E-01   1.00800           0
      9132 MEMB     68       POPC     C311     CTL2    -0.180000       12.0110           0
      9133 MEMB     68       POPC     H11X     HAL2     0.900000E-01   1.00800           0
      9134 MEMB     68       POPC     H11Y     HAL2     0.900000E-01   1.00800           0
      9135 MEMB     68       POPC     C312     CTL2    -0.180000       12.0110           0
      9136 MEMB     68       POPC     H12X     HAL2     0.900000E-01   1.00800           0
      9137 MEMB     68       POPC     H12Y     HAL2     0.900000E-01   1.00800           0
      9138 MEMB     68       POPC     C313     CTL2    -0.180000       12.0110           0
      9139 MEMB     68       POPC     H13X     HAL2     0.900000E-01   1.00800           0
      9140 MEMB     68       POPC     H13Y     HAL2     0.900000E-01   1.00800           0
      9141 MEMB     68       POPC     C314     CTL2    -0.180000       12.0110           0
      9142 MEMB     68       POPC     H14X     HAL2     0.900000E-01   1.00800           0
      9143 MEMB     68       POPC     H14Y     HAL2     0.900000E-01   1.00800           0
      9144 MEMB     68       POPC     C315     CTL2    -0.180000       12.0110           0
      9145 MEMB     68       POPC     H15X     HAL2     0.900000E-01   1.00800           0
      9146 MEMB     68       POPC     H15Y     HAL2     0.900000E-01   1.00800           0
      9147 MEMB     68       POPC     C316     CTL3    -0.270000       12.0110           0
      9148 MEMB     68       POPC     H16X     HAL3     0.900000E-01   1.00800           0
      9149 MEMB     68       POPC     H16Y     HAL3     0.900000E-01   1.00800           0
      9150 MEMB     68       POPC     H16Z     HAL3     0.900000E-01   1.00800           0
      9151 MEMB     69       POPC     N        NTL     -0.600000       14.0070           0
      9152 MEMB     69       POPC     C12      CTL2    -0.100000       12.0110           0
      9153 MEMB     69       POPC     H12A     HL       0.250000       1.00800           0
      9154 MEMB     69       POPC     H12B     HL       0.250000       1.00800           0
      9155 MEMB     69       POPC     C13      CTL5    -0.350000       12.0110           0
      9156 MEMB     69       POPC     H13A     HL       0.250000       1.00800           0
      9157 MEMB     69       POPC     H13B     HL       0.250000       1.00800           0
      9158 MEMB     69       POPC     H13C     HL       0.250000       1.00800           0
      9159 MEMB     69       POPC     C14      CTL5    -0.350000       12.0110           0
      9160 MEMB     69       POPC     H14A     HL       0.250000       1.00800           0
      9161 MEMB     69       POPC     H14B     HL       0.250000       1.00800           0
      9162 MEMB     69       POPC     H14C     HL       0.250000       1.00800           0
      9163 MEMB     69       POPC     C15      CTL5    -0.350000       12.0110           0
      9164 MEMB     69       POPC     H15A     HL       0.250000       1.00800           0
      9165 MEMB     69       POPC     H15B     HL       0.250000       1.00800           0
      9166 MEMB     69       POPC     H15C     HL       0.250000       1.00800           0
      9167 MEMB     69       POPC     C11      CTL2    -0.800000E-01   12.0110           0
      9168 MEMB     69       POPC     H11A     HAL2     0.900000E-01   1.00800           0
      9169 MEMB     69       POPC     H11B     HAL2     0.900000E-01   1.00800           0
      9170 MEMB     69       POPC     P        PL       1.500000       30.9740           0
      9171 MEMB     69       POPC     O13      O2L     -0.780000       15.9994           0
      9172 MEMB     69       POPC     O14      O2L     -0.780000       15.9994           0
      9173 MEMB     69       POPC     O12      OSLP    -0.570000       15.9994           0
      9174 MEMB     69       POPC     O11      OSLP    -0.570000       15.9994           0
      9175 MEMB     69       POPC     C1       CTL2    -0.800000E-01   12.0110           0
      9176 MEMB     69       POPC     HA       HAL2     0.900000E-01   1.00800           0
      9177 MEMB     69       POPC     HB       HAL2     0.900000E-01   1.00800           0
      9178 MEMB     69       POPC     C2       CTL1     0.170000       12.0110           0
      9179 MEMB     69       POPC     HS       HAL1     0.900000E-01   1.00800           0
      9180 MEMB     69       POPC     O21      OSL     -0.490000       15.9994           0
      9181 MEMB     69       POPC     C21      CL       0.900000       12.0110           0
      9182 MEMB     69       POPC     O22      OBL     -0.630000       15.9994           0
      9183 MEMB     69       POPC     C22      CTL2    -0.220000       12.0110           0
      9184 MEMB     69       POPC     H2R      HAL2     0.900000E-01   1.00800           0
      9185 MEMB     69       POPC     H2S      HAL2     0.900000E-01   1.00800           0
      9186 MEMB     69       POPC     C3       CTL2     0.800000E-01   12.0110           0
      9187 MEMB     69       POPC     HX       HAL2     0.900000E-01   1.00800           0
      9188 MEMB     69       POPC     HY       HAL2     0.900000E-01   1.00800           0
      9189 MEMB     69       POPC     O31      OSL     -0.490000       15.9994           0
      9190 MEMB     69       POPC     C31      CL       0.900000       12.0110           0
      9191 MEMB     69       POPC     O32      OBL     -0.630000       15.9994           0
      9192 MEMB     69       POPC     C32      CTL2    -0.220000       12.0110           0
      9193 MEMB     69       POPC     H2X      HAL2     0.900000E-01   1.00800           0
      9194 MEMB     69       POPC     H2Y      HAL2     0.900000E-01   1.00800           0
      9195 MEMB     69       POPC     C23      CTL2    -0.180000       12.0110           0
      9196 MEMB     69       POPC     H3R      HAL2     0.900000E-01   1.00800           0
      9197 MEMB     69       POPC     H3S      HAL2     0.900000E-01   1.00800           0
      9198 MEMB     69       POPC     C24      CTL2    -0.180000       12.0110           0
      9199 MEMB     69       POPC     H4R      HAL2     0.900000E-01   1.00800           0
      9200 MEMB     69       POPC     H4S      HAL2     0.900000E-01   1.00800           0
      9201 MEMB     69       POPC     C25      CTL2    -0.180000       12.0110           0
      9202 MEMB     69       POPC     H5R      HAL2     0.900000E-01   1.00800           0
      9203 MEMB     69       POPC     H5S      HAL2     0.900000E-01   1.00800           0
      9204 MEMB     69       POPC     C26      CTL2    -0.180000       12.0110           0
      9205 MEMB     69       POPC     H6R      HAL2     0.900000E-01   1.00800           0
      9206 MEMB     69       POPC     H6S      HAL2     0.900000E-01   1.00800           0
      9207 MEMB     69       POPC     C27      CTL2    -0.180000       12.0110           0
      9208 MEMB     69       POPC     H7R      HAL2     0.900000E-01   1.00800           0
      9209 MEMB     69       POPC     H7S      HAL2     0.900000E-01   1.00800           0
      9210 MEMB     69       POPC     C28      CTL2    -0.180000       12.0110           0
      9211 MEMB     69       POPC     H8R      HAL2     0.900000E-01   1.00800           0
      9212 MEMB     69       POPC     H8S      HAL2     0.900000E-01   1.00800           0
      9213 MEMB     69       POPC     C29      CEL1    -0.150000       12.0110           0
      9214 MEMB     69       POPC     H91      HEL1     0.150000       1.00800           0
      9215 MEMB     69       POPC     C210     CEL1    -0.150000       12.0110           0
      9216 MEMB     69       POPC     H101     HEL1     0.150000       1.00800           0
      9217 MEMB     69       POPC     C211     CTL2    -0.180000       12.0110           0
      9218 MEMB     69       POPC     H11R     HAL2     0.900000E-01   1.00800           0
      9219 MEMB     69       POPC     H11S     HAL2     0.900000E-01   1.00800           0
      9220 MEMB     69       POPC     C212     CTL2    -0.180000       12.0110           0
      9221 MEMB     69       POPC     H12R     HAL2     0.900000E-01   1.00800           0
      9222 MEMB     69       POPC     H12S     HAL2     0.900000E-01   1.00800           0
      9223 MEMB     69       POPC     C213     CTL2    -0.180000       12.0110           0
      9224 MEMB     69       POPC     H13R     HAL2     0.900000E-01   1.00800           0
      9225 MEMB     69       POPC     H13S     HAL2     0.900000E-01   1.00800           0
      9226 MEMB     69       POPC     C214     CTL2    -0.180000       12.0110           0
      9227 MEMB     69       POPC     H14R     HAL2     0.900000E-01   1.00800           0
      9228 MEMB     69       POPC     H14S     HAL2     0.900000E-01   1.00800           0
      9229 MEMB     69       POPC     C215     CTL2    -0.180000       12.0110           0
      9230 MEMB     69       POPC     H15R     HAL2     0.900000E-01   1.00800           0
      9231 MEMB     69       POPC     H15S     HAL2     0.900000E-01   1.00800           0
      9232 MEMB     69       POPC     C216     CTL2    -0.180000       12.0110           0
      9233 MEMB     69       POPC     H16R     HAL2     0.900000E-01   1.00800           0
      9234 MEMB     69       POPC     H16S     HAL2     0.900000E-01   1.00800           0
      9235 MEMB     69       POPC     C217     CTL2    -0.180000       12.0110           0
      9236 MEMB     69       POPC     H17R     HAL2     0.900000E-01   1.00800           0
      9237 MEMB     69       POPC     H17S     HAL2     0.900000E-01   1.00800           0
      9238 MEMB     69       POPC     C218     CTL3    -0.270000       12.0110           0
      9239 MEMB     69       POPC     H18R     HAL3     0.900000E-01   1.00800           0
      9240 MEMB     69       POPC     H18S     HAL3     0.900000E-01   1.00800           0
      9241 MEMB     69       POPC     H18T     HAL3     0.900000E-01   1.00800           0
      9242 MEMB     69       POPC     C33      CTL2    -0.180000       12.0110           0
      9243 MEMB     69       POPC     H3X      HAL2     0.900000E-01   1.00800           0
      9244 MEMB     69       POPC     H3Y      HAL2     0.900000E-01   1.00800           0
      9245 MEMB     69       POPC     C34      CTL2    -0.180000       12.0110           0
      9246 MEMB     69       POPC     H4X      HAL2     0.900000E-01   1.00800           0
      9247 MEMB     69       POPC     H4Y      HAL2     0.900000E-01   1.00800           0
      9248 MEMB     69       POPC     C35      CTL2    -0.180000       12.0110           0
      9249 MEMB     69       POPC     H5X      HAL2     0.900000E-01   1.00800           0
      9250 MEMB     69       POPC     H5Y      HAL2     0.900000E-01   1.00800           0
      9251 MEMB     69       POPC     C36      CTL2    -0.180000       12.0110           0
      9252 MEMB     69       POPC     H6X      HAL2     0.900000E-01   1.00800           0
      9253 MEMB     69       POPC     H6Y      HAL2     0.900000E-01   1.00800           0
      9254 MEMB     69       POPC     C37      CTL2    -0.180000       12.0110           0
      9255 MEMB     69       POPC     H7X      HAL2     0.900000E-01   1.00800           0
      9256 MEMB     69       POPC     H7Y      HAL2     0.900000E-01   1.00800           0
      9257 MEMB     69       POPC     C38      CTL2    -0.180000       12.0110           0
      9258 MEMB     69       POPC     H8X      HAL2     0.900000E-01   1.00800           0
      9259 MEMB     69       POPC     H8Y      HAL2     0.900000E-01   1.00800           0
      9260 MEMB     69       POPC     C39      CTL2    -0.180000       12.0110           0
      9261 MEMB     69       POPC     H9X      HAL2     0.900000E-01   1.00800           0
      9262 MEMB     69       POPC     H9Y      HAL2     0.900000E-01   1.00800           0
      9263 MEMB     69       POPC     C310     CTL2    -0.180000       12.0110           0
      9264 MEMB     69       POPC     H10X     HAL2     0.900000E-01   1.00800           0
      9265 MEMB     69       POPC     H10Y     HAL2     0.900000E-01   1.00800           0
      9266 MEMB     69       POPC     C311     CTL2    -0.180000       12.0110           0
      9267 MEMB     69       POPC     H11X     HAL2     0.900000E-01   1.00800           0
      9268 MEMB     69       POPC     H11Y     HAL2     0.900000E-01   1.00800           0
      9269 MEMB     69       POPC     C312     CTL2    -0.180000       12.0110           0
      9270 MEMB     69       POPC     H12X     HAL2     0.900000E-01   1.00800           0
      9271 MEMB     69       POPC     H12Y     HAL2     0.900000E-01   1.00800           0
      9272 MEMB     69       POPC     C313     CTL2    -0.180000       12.0110           0
      9273 MEMB     69       POPC     H13X     HAL2     0.900000E-01   1.00800           0
      9274 MEMB     69       POPC     H13Y     HAL2     0.900000E-01   1.00800           0
      9275 MEMB     69       POPC     C314     CTL2    -0.180000       12.0110           0
      9276 MEMB     69       POPC     H14X     HAL2     0.900000E-01   1.00800           0
      9277 MEMB     69       POPC     H14Y     HAL2     0.900000E-01   1.00800           0
      9278 MEMB     69       POPC     C315     CTL2    -0.180000       12.0110           0
      9279 MEMB     69       POPC     H15X     HAL2     0.900000E-01   1.00800           0
      9280 MEMB     69       POPC     H15Y     HAL2     0.900000E-01   1.00800           0
      9281 MEMB     69       POPC     C316     CTL3    -0.270000       12.0110           0
      9282 MEMB     69       POPC     H16X     HAL3     0.900000E-01   1.00800           0
      9283 MEMB     69       POPC     H16Y     HAL3     0.900000E-01   1.00800           0
      9284 MEMB     69       POPC     H16Z     HAL3     0.900000E-01   1.00800           0
      9285 MEMB     70       POPC     N        NTL     -0.600000       14.0070           0
      9286 MEMB     70       POPC     C12      CTL2    -0.100000       12.0110           0
      9287 MEMB     70       POPC     H12A     HL       0.250000       1.00800           0
      9288 MEMB     70       POPC     H12B     HL       0.250000       1.00800           0
      9289 MEMB     70       POPC     C13      CTL5    -0.350000       12.0110           0
      9290 MEMB     70       POPC     H13A     HL       0.250000       1.00800           0
      9291 MEMB     70       POPC     H13B     HL       0.250000       1.00800           0
      9292 MEMB     70       POPC     H13C     HL       0.250000       1.00800           0
      9293 MEMB     70       POPC     C14      CTL5    -0.350000       12.0110           0
      9294 MEMB     70       POPC     H14A     HL       0.250000       1.00800           0
      9295 MEMB     70       POPC     H14B     HL       0.250000       1.00800           0
      9296 MEMB     70       POPC     H14C     HL       0.250000       1.00800           0
      9297 MEMB     70       POPC     C15      CTL5    -0.350000       12.0110           0
      9298 MEMB     70       POPC     H15A     HL       0.250000       1.00800           0
      9299 MEMB     70       POPC     H15B     HL       0.250000       1.00800           0
      9300 MEMB     70       POPC     H15C     HL       0.250000       1.00800           0
      9301 MEMB     70       POPC     C11      CTL2    -0.800000E-01   12.0110           0
      9302 MEMB     70       POPC     H11A     HAL2     0.900000E-01   1.00800           0
      9303 MEMB     70       POPC     H11B     HAL2     0.900000E-01   1.00800           0
      9304 MEMB     70       POPC     P        PL       1.500000       30.9740           0
      9305 MEMB     70       POPC     O13      O2L     -0.780000       15.9994           0
      9306 MEMB     70       POPC     O14      O2L     -0.780000       15.9994           0
      9307 MEMB     70       POPC     O12      OSLP    -0.570000       15.9994           0
      9308 MEMB     70       POPC     O11      OSLP    -0.570000       15.9994           0
      9309 MEMB     70       POPC     C1       CTL2    -0.800000E-01   12.0110           0
      9310 MEMB     70       POPC     HA       HAL2     0.900000E-01   1.00800           0
      9311 MEMB     70       POPC     HB       HAL2     0.900000E-01   1.00800           0
      9312 MEMB     70       POPC     C2       CTL1     0.170000       12.0110           0
      9313 MEMB     70       POPC     HS       HAL1     0.900000E-01   1.00800           0
      9314 MEMB     70       POPC     O21      OSL     -0.490000       15.9994           0
      9315 MEMB     70       POPC     C21      CL       0.900000       12.0110           0
      9316 MEMB     70       POPC     O22      OBL     -0.630000       15.9994           0
      9317 MEMB     70       POPC     C22      CTL2    -0.220000       12.0110           0
      9318 MEMB     70       POPC     H2R      HAL2     0.900000E-01   1.00800           0
      9319 MEMB     70       POPC     H2S      HAL2     0.900000E-01   1.00800           0
      9320 MEMB     70       POPC     C3       CTL2     0.800000E-01   12.0110           0
      9321 MEMB     70       POPC     HX       HAL2     0.900000E-01   1.00800           0
      9322 MEMB     70       POPC     HY       HAL2     0.900000E-01   1.00800           0
      9323 MEMB     70       POPC     O31      OSL     -0.490000       15.9994           0
      9324 MEMB     70       POPC     C31      CL       0.900000       12.0110           0
      9325 MEMB     70       POPC     O32      OBL     -0.630000       15.9994           0
      9326 MEMB     70       POPC     C32      CTL2    -0.220000       12.0110           0
      9327 MEMB     70       POPC     H2X      HAL2     0.900000E-01   1.00800           0
      9328 MEMB     70       POPC     H2Y      HAL2     0.900000E-01   1.00800           0
      9329 MEMB     70       POPC     C23      CTL2    -0.180000       12.0110           0
      9330 MEMB     70       POPC     H3R      HAL2     0.900000E-01   1.00800           0
      9331 MEMB     70       POPC     H3S      HAL2     0.900000E-01   1.00800           0
      9332 MEMB     70       POPC     C24      CTL2    -0.180000       12.0110           0
      9333 MEMB     70       POPC     H4R      HAL2     0.900000E-01   1.00800           0
      9334 MEMB     70       POPC     H4S      HAL2     0.900000E-01   1.00800           0
      9335 MEMB     70       POPC     C25      CTL2    -0.180000       12.0110           0
      9336 MEMB     70       POPC     H5R      HAL2     0.900000E-01   1.00800           0
      9337 MEMB     70       POPC     H5S      HAL2     0.900000E-01   1.00800           0
      9338 MEMB     70       POPC     C26      CTL2    -0.180000       12.0110           0
      9339 MEMB     70       POPC     H6R      HAL2     0.900000E-01   1.00800           0
      9340 MEMB     70       POPC     H6S      HAL2     0.900000E-01   1.00800           0
      9341 MEMB     70       POPC     C27      CTL2    -0.180000       12.0110           0
      9342 MEMB     70       POPC     H7R      HAL2     0.900000E-01   1.00800           0
      9343 MEMB     70       POPC     H7S      HAL2     0.900000E-01   1.00800           0
      9344 MEMB     70       POPC     C28      CTL2    -0.180000       12.0110           0
      9345 MEMB     70       POPC     H8R      HAL2     0.900000E-01   1.00800           0
      9346 MEMB     70       POPC     H8S      HAL2     0.900000E-01   1.00800           0
      9347 MEMB     70       POPC     C29      CEL1    -0.150000       12.0110           0
      9348 MEMB     70       POPC     H91      HEL1     0.150000       1.00800           0
      9349 MEMB     70       POPC     C210     CEL1    -0.150000       12.0110           0
      9350 MEMB     70       POPC     H101     HEL1     0.150000       1.00800           0
      9351 MEMB     70       POPC     C211     CTL2    -0.180000       12.0110           0
      9352 MEMB     70       POPC     H11R     HAL2     0.900000E-01   1.00800           0
      9353 MEMB     70       POPC     H11S     HAL2     0.900000E-01   1.00800           0
      9354 MEMB     70       POPC     C212     CTL2    -0.180000       12.0110           0
      9355 MEMB     70       POPC     H12R     HAL2     0.900000E-01   1.00800           0
      9356 MEMB     70       POPC     H12S     HAL2     0.900000E-01   1.00800           0
      9357 MEMB     70       POPC     C213     CTL2    -0.180000       12.0110           0
      9358 MEMB     70       POPC     H13R     HAL2     0.900000E-01   1.00800           0
      9359 MEMB     70       POPC     H13S     HAL2     0.900000E-01   1.00800           0
      9360 MEMB     70       POPC     C214     CTL2    -0.180000       12.0110           0
      9361 MEMB     70       POPC     H14R     HAL2     0.900000E-01   1.00800           0
      9362 MEMB     70       POPC     H14S     HAL2     0.900000E-01   1.00800           0
      9363 MEMB     70       POPC     C215     CTL2    -0.180000       12.0110           0
      9364 MEMB     70       POPC     H15R     HAL2     0.900000E-01   1.00800           0
      9365 MEMB     70       POPC     H15S     HAL2     0.900000E-01   1.00800           0
      9366 MEMB     70       POPC     C216     CTL2    -0.180000       12.0110           0
      9367 MEMB     70       POPC     H16R     HAL2     0.900000E-01   1.00800           0
      9368 MEMB     70       POPC     H16S     HAL2     0.900000E-01   1.00800           0
      9369 MEMB     70       POPC     C217     CTL2    -0.180000       12.0110           0
      9370 MEMB     70       POPC     H17R     HAL2     0.900000E-01   1.00800           0
      9371 MEMB     70       POPC     H17S     HAL2     0.900000E-01   1.00800           0
      9372 MEMB     70       POPC     C218     CTL3    -0.270000       12.0110           0
      9373 MEMB     70       POPC     H18R     HAL3     0.900000E-01   1.00800           0
      9374 MEMB     70       POPC     H18S     HAL3     0.900000E-01   1.00800           0
      9375 MEMB     70       POPC     H18T     HAL3     0.900000E-01   1.00800           0
      9376 MEMB     70       POPC     C33      CTL2    -0.180000       12.0110           0
      9377 MEMB     70       POPC     H3X      HAL2     0.900000E-01   1.00800           0
      9378 MEMB     70       POPC     H3Y      HAL2     0.900000E-01   1.00800           0
      9379 MEMB     70       POPC     C34      CTL2    -0.180000       12.0110           0
      9380 MEMB     70       POPC     H4X      HAL2     0.900000E-01   1.00800           0
      9381 MEMB     70       POPC     H4Y      HAL2     0.900000E-01   1.00800           0
      9382 MEMB     70       POPC     C35      CTL2    -0.180000       12.0110           0
      9383 MEMB     70       POPC     H5X      HAL2     0.900000E-01   1.00800           0
      9384 MEMB     70       POPC     H5Y      HAL2     0.900000E-01   1.00800           0
      9385 MEMB     70       POPC     C36      CTL2    -0.180000       12.0110           0
      9386 MEMB     70       POPC     H6X      HAL2     0.900000E-01   1.00800           0
      9387 MEMB     70       POPC     H6Y      HAL2     0.900000E-01   1.00800           0
      9388 MEMB     70       POPC     C37      CTL2    -0.180000       12.0110           0
      9389 MEMB     70       POPC     H7X      HAL2     0.900000E-01   1.00800           0
      9390 MEMB     70       POPC     H7Y      HAL2     0.900000E-01   1.00800           0
      9391 MEMB     70       POPC     C38      CTL2    -0.180000       12.0110           0
      9392 MEMB     70       POPC     H8X      HAL2     0.900000E-01   1.00800           0
      9393 MEMB     70       POPC     H8Y      HAL2     0.900000E-01   1.00800           0
      9394 MEMB     70       POPC     C39      CTL2    -0.180000       12.0110           0
      9395 MEMB     70       POPC     H9X      HAL2     0.900000E-01   1.00800           0
      9396 MEMB     70       POPC     H9Y      HAL2     0.900000E-01   1.00800           0
      9397 MEMB     70       POPC     C310     CTL2    -0.180000       12.0110           0
      9398 MEMB     70       POPC     H10X     HAL2     0.900000E-01   1.00800           0
      9399 MEMB     70       POPC     H10Y     HAL2     0.900000E-01   1.00800           0
      9400 MEMB     70       POPC     C311     CTL2    -0.180000       12.0110           0
      9401 MEMB     70       POPC     H11X     HAL2     0.900000E-01   1.00800           0
      9402 MEMB     70       POPC     H11Y     HAL2     0.900000E-01   1.00800           0
      9403 MEMB     70       POPC     C312     CTL2    -0.180000       12.0110           0
      9404 MEMB     70       POPC     H12X     HAL2     0.900000E-01   1.00800           0
      9405 MEMB     70       POPC     H12Y     HAL2     0.900000E-01   1.00800           0
      9406 MEMB     70       POPC     C313     CTL2    -0.180000       12.0110           0
      9407 MEMB     70       POPC     H13X     HAL2     0.900000E-01   1.00800           0
      9408 MEMB     70       POPC     H13Y     HAL2     0.900000E-01   1.00800           0
      9409 MEMB     70       POPC     C314     CTL2    -0.180000       12.0110           0
      9410 MEMB     70       POPC     H14X     HAL2     0.900000E-01   1.00800           0
      9411 MEMB     70       POPC     H14Y     HAL2     0.900000E-01   1.00800           0
      9412 MEMB     70       POPC     C315     CTL2    -0.180000       12.0110           0
      9413 MEMB     70       POPC     H15X     HAL2     0.900000E-01   1.00800           0
      9414 MEMB     70       POPC     H15Y     HAL2     0.900000E-01   1.00800           0
      9415 MEMB     70       POPC     C316     CTL3    -0.270000       12.0110           0
      9416 MEMB     70       POPC     H16X     HAL3     0.900000E-01   1.00800           0
      9417 MEMB     70       POPC     H16Y     HAL3     0.900000E-01   1.00800           0
      9418 MEMB     70       POPC     H16Z     HAL3     0.900000E-01   1.00800           0
      9419 MEMB     71       POPC     N        NTL     -0.600000       14.0070           0
      9420 MEMB     71       POPC     C12      CTL2    -0.100000       12.0110           0
      9421 MEMB     71       POPC     H12A     HL       0.250000       1.00800           0
      9422 MEMB     71       POPC     H12B     HL       0.250000       1.00800           0
      9423 MEMB     71       POPC     C13      CTL5    -0.350000       12.0110           0
      9424 MEMB     71       POPC     H13A     HL       0.250000       1.00800           0
      9425 MEMB     71       POPC     H13B     HL       0.250000       1.00800           0
      9426 MEMB     71       POPC     H13C     HL       0.250000       1.00800           0
      9427 MEMB     71       POPC     C14      CTL5    -0.350000       12.0110           0
      9428 MEMB     71       POPC     H14A     HL       0.250000       1.00800           0
      9429 MEMB     71       POPC     H14B     HL       0.250000       1.00800           0
      9430 MEMB     71       POPC     H14C     HL       0.250000       1.00800           0
      9431 MEMB     71       POPC     C15      CTL5    -0.350000       12.0110           0
      9432 MEMB     71       POPC     H15A     HL       0.250000       1.00800           0
      9433 MEMB     71       POPC     H15B     HL       0.250000       1.00800           0
      9434 MEMB     71       POPC     H15C     HL       0.250000       1.00800           0
      9435 MEMB     71       POPC     C11      CTL2    -0.800000E-01   12.0110           0
      9436 MEMB     71       POPC     H11A     HAL2     0.900000E-01   1.00800           0
      9437 MEMB     71       POPC     H11B     HAL2     0.900000E-01   1.00800           0
      9438 MEMB     71       POPC     P        PL       1.500000       30.9740           0
      9439 MEMB     71       POPC     O13      O2L     -0.780000       15.9994           0
      9440 MEMB     71       POPC     O14      O2L     -0.780000       15.9994           0
      9441 MEMB     71       POPC     O12      OSLP    -0.570000       15.9994           0
      9442 MEMB     71       POPC     O11      OSLP    -0.570000       15.9994           0
      9443 MEMB     71       POPC     C1       CTL2    -0.800000E-01   12.0110           0
      9444 MEMB     71       POPC     HA       HAL2     0.900000E-01   1.00800           0
      9445 MEMB     71       POPC     HB       HAL2     0.900000E-01   1.00800           0
      9446 MEMB     71       POPC     C2       CTL1     0.170000       12.0110           0
      9447 MEMB     71       POPC     HS       HAL1     0.900000E-01   1.00800           0
      9448 MEMB     71       POPC     O21      OSL     -0.490000       15.9994           0
      9449 MEMB     71       POPC     C21      CL       0.900000       12.0110           0
      9450 MEMB     71       POPC     O22      OBL     -0.630000       15.9994           0
      9451 MEMB     71       POPC     C22      CTL2    -0.220000       12.0110           0
      9452 MEMB     71       POPC     H2R      HAL2     0.900000E-01   1.00800           0
      9453 MEMB     71       POPC     H2S      HAL2     0.900000E-01   1.00800           0
      9454 MEMB     71       POPC     C3       CTL2     0.800000E-01   12.0110           0
      9455 MEMB     71       POPC     HX       HAL2     0.900000E-01   1.00800           0
      9456 MEMB     71       POPC     HY       HAL2     0.900000E-01   1.00800           0
      9457 MEMB     71       POPC     O31      OSL     -0.490000       15.9994           0
      9458 MEMB     71       POPC     C31      CL       0.900000       12.0110           0
      9459 MEMB     71       POPC     O32      OBL     -0.630000       15.9994           0
      9460 MEMB     71       POPC     C32      CTL2    -0.220000       12.0110           0
      9461 MEMB     71       POPC     H2X      HAL2     0.900000E-01   1.00800           0
      9462 MEMB     71       POPC     H2Y      HAL2     0.900000E-01   1.00800           0
      9463 MEMB     71       POPC     C23      CTL2    -0.180000       12.0110           0
      9464 MEMB     71       POPC     H3R      HAL2     0.900000E-01   1.00800           0
      9465 MEMB     71       POPC     H3S      HAL2     0.900000E-01   1.00800           0
      9466 MEMB     71       POPC     C24      CTL2    -0.180000       12.0110           0
      9467 MEMB     71       POPC     H4R      HAL2     0.900000E-01   1.00800           0
      9468 MEMB     71       POPC     H4S      HAL2     0.900000E-01   1.00800           0
      9469 MEMB     71       POPC     C25      CTL2    -0.180000       12.0110           0
      9470 MEMB     71       POPC     H5R      HAL2     0.900000E-01   1.00800           0
      9471 MEMB     71       POPC     H5S      HAL2     0.900000E-01   1.00800           0
      9472 MEMB     71       POPC     C26      CTL2    -0.180000       12.0110           0
      9473 MEMB     71       POPC     H6R      HAL2     0.900000E-01   1.00800           0
      9474 MEMB     71       POPC     H6S      HAL2     0.900000E-01   1.00800           0
      9475 MEMB     71       POPC     C27      CTL2    -0.180000       12.0110           0
      9476 MEMB     71       POPC     H7R      HAL2     0.900000E-01   1.00800           0
      9477 MEMB     71       POPC     H7S      HAL2     0.900000E-01   1.00800           0
      9478 MEMB     71       POPC     C28      CTL2    -0.180000       12.0110           0
      9479 MEMB     71       POPC     H8R      HAL2     0.900000E-01   1.00800           0
      9480 MEMB     71       POPC     H8S      HAL2     0.900000E-01   1.00800           0
      9481 MEMB     71       POPC     C29      CEL1    -0.150000       12.0110           0
      9482 MEMB     71       POPC     H91      HEL1     0.150000       1.00800           0
      9483 MEMB     71       POPC     C210     CEL1    -0.150000       12.0110           0
      9484 MEMB     71       POPC     H101     HEL1     0.150000       1.00800           0
      9485 MEMB     71       POPC     C211     CTL2    -0.180000       12.0110           0
      9486 MEMB     71       POPC     H11R     HAL2     0.900000E-01   1.00800           0
      9487 MEMB     71       POPC     H11S     HAL2     0.900000E-01   1.00800           0
      9488 MEMB     71       POPC     C212     CTL2    -0.180000       12.0110           0
      9489 MEMB     71       POPC     H12R     HAL2     0.900000E-01   1.00800           0
      9490 MEMB     71       POPC     H12S     HAL2     0.900000E-01   1.00800           0
      9491 MEMB     71       POPC     C213     CTL2    -0.180000       12.0110           0
      9492 MEMB     71       POPC     H13R     HAL2     0.900000E-01   1.00800           0
      9493 MEMB     71       POPC     H13S     HAL2     0.900000E-01   1.00800           0
      9494 MEMB     71       POPC     C214     CTL2    -0.180000       12.0110           0
      9495 MEMB     71       POPC     H14R     HAL2     0.900000E-01   1.00800           0
      9496 MEMB     71       POPC     H14S     HAL2     0.900000E-01   1.00800           0
      9497 MEMB     71       POPC     C215     CTL2    -0.180000       12.0110           0
      9498 MEMB     71       POPC     H15R     HAL2     0.900000E-01   1.00800           0
      9499 MEMB     71       POPC     H15S     HAL2     0.900000E-01   1.00800           0
      9500 MEMB     71       POPC     C216     CTL2    -0.180000       12.0110           0
      9501 MEMB     71       POPC     H16R     HAL2     0.900000E-01   1.00800           0
      9502 MEMB     71       POPC     H16S     HAL2     0.900000E-01   1.00800           0
      9503 MEMB     71       POPC     C217     CTL2    -0.180000       12.0110           0
      9504 MEMB     71       POPC     H17R     HAL2     0.900000E-01   1.00800           0
      9505 MEMB     71       POPC     H17S     HAL2     0.900000E-01   1.00800           0
      9506 MEMB     71       POPC     C218     CTL3    -0.270000       12.0110           0
      9507 MEMB     71       POPC     H18R     HAL3     0.900000E-01   1.00800           0
      9508 MEMB     71       POPC     H18S     HAL3     0.900000E-01   1.00800           0
      9509 MEMB     71       POPC     H18T     HAL3     0.900000E-01   1.00800           0
      9510 MEMB     71       POPC     C33      CTL2    -0.180000       12.0110           0
      9511 MEMB     71       POPC     H3X      HAL2     0.900000E-01   1.00800           0
      9512 MEMB     71       POPC     H3Y      HAL2     0.900000E-01   1.00800           0
      9513 MEMB     71       POPC     C34      CTL2    -0.180000       12.0110           0
      9514 MEMB     71       POPC     H4X      HAL2     0.900000E-01   1.00800           0
      9515 MEMB     71       POPC     H4Y      HAL2     0.900000E-01   1.00800           0
      9516 MEMB     71       POPC     C35      CTL2    -0.180000       12.0110           0
      9517 MEMB     71       POPC     H5X      HAL2     0.900000E-01   1.00800           0
      9518 MEMB     71       POPC     H5Y      HAL2     0.900000E-01   1.00800           0
      9519 MEMB     71       POPC     C36      CTL2    -0.180000       12.0110           0
      9520 MEMB     71       POPC     H6X      HAL2     0.900000E-01   1.00800           0
      9521 MEMB     71       POPC     H6Y      HAL2     0.900000E-01   1.00800           0
      9522 MEMB     71       POPC     C37      CTL2    -0.180000       12.0110           0
      9523 MEMB     71       POPC     H7X      HAL2     0.900000E-01   1.00800           0
      9524 MEMB     71       POPC     H7Y      HAL2     0.900000E-01   1.00800           0
      9525 MEMB     71       POPC     C38      CTL2    -0.180000       12.0110           0
      9526 MEMB     71       POPC     H8X      HAL2     0.900000E-01   1.00800           0
      9527 MEMB     71       POPC     H8Y      HAL2     0.900000E-01   1.00800           0
      9528 MEMB     71       POPC     C39      CTL2    -0.180000       12.0110           0
      9529 MEMB     71       POPC     H9X      HAL2     0.900000E-01   1.00800           0
      9530 MEMB     71       POPC     H9Y      HAL2     0.900000E-01   1.00800           0
      9531 MEMB     71       POPC     C310     CTL2    -0.180000       12.0110           0
      9532 MEMB     71       POPC     H10X     HAL2     0.900000E-01   1.00800           0
      9533 MEMB     71       POPC     H10Y     HAL2     0.900000E-01   1.00800           0
      9534 MEMB     71       POPC     C311     CTL2    -0.180000       12.0110           0
      9535 MEMB     71       POPC     H11X     HAL2     0.900000E-01   1.00800           0
      9536 MEMB     71       POPC     H11Y     HAL2     0.900000E-01   1.00800           0
      9537 MEMB     71       POPC     C312     CTL2    -0.180000       12.0110           0
      9538 MEMB     71       POPC     H12X     HAL2     0.900000E-01   1.00800           0
      9539 MEMB     71       POPC     H12Y     HAL2     0.900000E-01   1.00800           0
      9540 MEMB     71       POPC     C313     CTL2    -0.180000       12.0110           0
      9541 MEMB     71       POPC     H13X     HAL2     0.900000E-01   1.00800           0
      9542 MEMB     71       POPC     H13Y     HAL2     0.900000E-01   1.00800           0
      9543 MEMB     71       POPC     C314     CTL2    -0.180000       12.0110           0
      9544 MEMB     71       POPC     H14X     HAL2     0.900000E-01   1.00800           0
      9545 MEMB     71       POPC     H14Y     HAL2     0.900000E-01   1.00800           0
      9546 MEMB     71       POPC     C315     CTL2    -0.180000       12.0110           0
      9547 MEMB     71       POPC     H15X     HAL2     0.900000E-01   1.00800           0
      9548 MEMB     71       POPC     H15Y     HAL2     0.900000E-01   1.00800           0
      9549 MEMB     71       POPC     C316     CTL3    -0.270000       12.0110           0
      9550 MEMB     71       POPC     H16X     HAL3     0.900000E-01   1.00800           0
      9551 MEMB     71       POPC     H16Y     HAL3     0.900000E-01   1.00800           0
      9552 MEMB     71       POPC     H16Z     HAL3     0.900000E-01   1.00800           0
      9553 MEMB     72       POPS     N        NH3L    -0.300000       14.0070           0
      9554 MEMB     72       POPS     HN1      HCL      0.330000       1.00800           0
      9555 MEMB     72       POPS     HN2      HCL      0.330000       1.00800           0
      9556 MEMB     72       POPS     HN3      HCL      0.330000       1.00800           0
      9557 MEMB     72       POPS     C12      CTL1     0.210000       12.0110           0
      9558 MEMB     72       POPS     H12A     HBL      0.100000       1.00800           0
      9559 MEMB     72       POPS     C13      CCL      0.340000       12.0110           0
      9560 MEMB     72       POPS     O13A     OCL     -0.670000       15.9994           0
      9561 MEMB     72       POPS     O13B     OCL     -0.670000       15.9994           0
      9562 MEMB     72       POPS     C11      CTL2    -0.800000E-01   12.0110           0
      9563 MEMB     72       POPS     H11A     HAL2     0.900000E-01   1.00800           0
      9564 MEMB     72       POPS     H11B     HAL2     0.900000E-01   1.00800           0
      9565 MEMB     72       POPS     P        PL       1.500000       30.9740           0
      9566 MEMB     72       POPS     O13      O2L     -0.780000       15.9994           0
      9567 MEMB     72       POPS     O14      O2L     -0.780000       15.9994           0
      9568 MEMB     72       POPS     O12      OSLP    -0.570000       15.9994           0
      9569 MEMB     72       POPS     O11      OSLP    -0.570000       15.9994           0
      9570 MEMB     72       POPS     C1       CTL2    -0.800000E-01   12.0110           0
      9571 MEMB     72       POPS     HA       HAL2     0.900000E-01   1.00800           0
      9572 MEMB     72       POPS     HB       HAL2     0.900000E-01   1.00800           0
      9573 MEMB     72       POPS     C2       CTL1     0.170000       12.0110           0
      9574 MEMB     72       POPS     HS       HAL1     0.900000E-01   1.00800           0
      9575 MEMB     72       POPS     O21      OSL     -0.490000       15.9994           0
      9576 MEMB     72       POPS     C21      CL       0.900000       12.0110           0
      9577 MEMB     72       POPS     O22      OBL     -0.630000       15.9994           0
      9578 MEMB     72       POPS     C22      CTL2    -0.220000       12.0110           0
      9579 MEMB     72       POPS     H2R      HAL2     0.900000E-01   1.00800           0
      9580 MEMB     72       POPS     H2S      HAL2     0.900000E-01   1.00800           0
      9581 MEMB     72       POPS     C3       CTL2     0.800000E-01   12.0110           0
      9582 MEMB     72       POPS     HX       HAL2     0.900000E-01   1.00800           0
      9583 MEMB     72       POPS     HY       HAL2     0.900000E-01   1.00800           0
      9584 MEMB     72       POPS     O31      OSL     -0.490000       15.9994           0
      9585 MEMB     72       POPS     C31      CL       0.900000       12.0110           0
      9586 MEMB     72       POPS     O32      OBL     -0.630000       15.9994           0
      9587 MEMB     72       POPS     C32      CTL2    -0.220000       12.0110           0
      9588 MEMB     72       POPS     H2X      HAL2     0.900000E-01   1.00800           0
      9589 MEMB     72       POPS     H2Y      HAL2     0.900000E-01   1.00800           0
      9590 MEMB     72       POPS     C23      CTL2    -0.180000       12.0110           0
      9591 MEMB     72       POPS     H3R      HAL2     0.900000E-01   1.00800           0
      9592 MEMB     72       POPS     H3S      HAL2     0.900000E-01   1.00800           0
      9593 MEMB     72       POPS     C24      CTL2    -0.180000       12.0110           0
      9594 MEMB     72       POPS     H4R      HAL2     0.900000E-01   1.00800           0
      9595 MEMB     72       POPS     H4S      HAL2     0.900000E-01   1.00800           0
      9596 MEMB     72       POPS     C25      CTL2    -0.180000       12.0110           0
      9597 MEMB     72       POPS     H5R      HAL2     0.900000E-01   1.00800           0
      9598 MEMB     72       POPS     H5S      HAL2     0.900000E-01   1.00800           0
      9599 MEMB     72       POPS     C26      CTL2    -0.180000       12.0110           0
      9600 MEMB     72       POPS     H6R      HAL2     0.900000E-01   1.00800           0
      9601 MEMB     72       POPS     H6S      HAL2     0.900000E-01   1.00800           0
      9602 MEMB     72       POPS     C27      CTL2    -0.180000       12.0110           0
      9603 MEMB     72       POPS     H7R      HAL2     0.900000E-01   1.00800           0
      9604 MEMB     72       POPS     H7S      HAL2     0.900000E-01   1.00800           0
      9605 MEMB     72       POPS     C28      CTL2    -0.180000       12.0110           0
      9606 MEMB     72       POPS     H8R      HAL2     0.900000E-01   1.00800           0
      9607 MEMB     72       POPS     H8S      HAL2     0.900000E-01   1.00800           0
      9608 MEMB     72       POPS     C29      CEL1    -0.150000       12.0110           0
      9609 MEMB     72       POPS     H91      HEL1     0.150000       1.00800           0
      9610 MEMB     72       POPS     C210     CEL1    -0.150000       12.0110           0
      9611 MEMB     72       POPS     H101     HEL1     0.150000       1.00800           0
      9612 MEMB     72       POPS     C211     CTL2    -0.180000       12.0110           0
      9613 MEMB     72       POPS     H11R     HAL2     0.900000E-01   1.00800           0
      9614 MEMB     72       POPS     H11S     HAL2     0.900000E-01   1.00800           0
      9615 MEMB     72       POPS     C212     CTL2    -0.180000       12.0110           0
      9616 MEMB     72       POPS     H12R     HAL2     0.900000E-01   1.00800           0
      9617 MEMB     72       POPS     H12S     HAL2     0.900000E-01   1.00800           0
      9618 MEMB     72       POPS     C213     CTL2    -0.180000       12.0110           0
      9619 MEMB     72       POPS     H13R     HAL2     0.900000E-01   1.00800           0
      9620 MEMB     72       POPS     H13S     HAL2     0.900000E-01   1.00800           0
      9621 MEMB     72       POPS     C214     CTL2    -0.180000       12.0110           0
      9622 MEMB     72       POPS     H14R     HAL2     0.900000E-01   1.00800           0
      9623 MEMB     72       POPS     H14S     HAL2     0.900000E-01   1.00800           0
      9624 MEMB     72       POPS     C215     CTL2    -0.180000       12.0110           0
      9625 MEMB     72       POPS     H15R     HAL2     0.900000E-01   1.00800           0
      9626 MEMB     72       POPS     H15S     HAL2     0.900000E-01   1.00800           0
      9627 MEMB     72       POPS     C216     CTL2    -0.180000       12.0110           0
      9628 MEMB     72       POPS     H16R     HAL2     0.900000E-01   1.00800           0
      9629 MEMB     72       POPS     H16S     HAL2     0.900000E-01   1.00800           0
      9630 MEMB     72       POPS     C217     CTL2    -0.180000       12.0110           0
      9631 MEMB     72       POPS     H17R     HAL2     0.900000E-01   1.00800           0
      9632 MEMB     72       POPS     H17S     HAL2     0.900000E-01   1.00800           0
      9633 MEMB     72       POPS     C218     CTL3    -0.270000       12.0110           0
      9634 MEMB     72       POPS     H18R     HAL3     0.900000E-01   1.00800           0
      9635 MEMB     72       POPS     H18S     HAL3     0.900000E-01   1.00800           0
      9636 MEMB     72       POPS     H18T     HAL3     0.900000E-01   1.00800           0
      9637 MEMB     72       POPS     C33      CTL2    -0.180000       12.0110           0
      9638 MEMB     72       POPS     H3X      HAL2     0.900000E-01   1.00800           0
      9639 MEMB     72       POPS     H3Y      HAL2     0.900000E-01   1.00800           0
      9640 MEMB     72       POPS     C34      CTL2    -0.180000       12.0110           0
      9641 MEMB     72       POPS     H4X      HAL2     0.900000E-01   1.00800           0
      9642 MEMB     72       POPS     H4Y      HAL2     0.900000E-01   1.00800           0
      9643 MEMB     72       POPS     C35      CTL2    -0.180000       12.0110           0
      9644 MEMB     72       POPS     H5X      HAL2     0.900000E-01   1.00800           0
      9645 MEMB     72       POPS     H5Y      HAL2     0.900000E-01   1.00800           0
      9646 MEMB     72       POPS     C36      CTL2    -0.180000       12.0110           0
      9647 MEMB     72       POPS     H6X      HAL2     0.900000E-01   1.00800           0
      9648 MEMB     72       POPS     H6Y      HAL2     0.900000E-01   1.00800           0
      9649 MEMB     72       POPS     C37      CTL2    -0.180000       12.0110           0
      9650 MEMB     72       POPS     H7X      HAL2     0.900000E-01   1.00800           0
      9651 MEMB     72       POPS     H7Y      HAL2     0.900000E-01   1.00800           0
      9652 MEMB     72       POPS     C38      CTL2    -0.180000       12.0110           0
      9653 MEMB     72       POPS     H8X      HAL2     0.900000E-01   1.00800           0
      9654 MEMB     72       POPS     H8Y      HAL2     0.900000E-01   1.00800           0
      9655 MEMB     72       POPS     C39      CTL2    -0.180000       12.0110           0
      9656 MEMB     72       POPS     H9X      HAL2     0.900000E-01   1.00800           0
      9657 MEMB     72       POPS     H9Y      HAL2     0.900000E-01   1.00800           0
      9658 MEMB     72       POPS     C310     CTL2    -0.180000       12.0110           0
      9659 MEMB     72       POPS     H10X     HAL2     0.900000E-01   1.00800           0
      9660 MEMB     72       POPS     H10Y     HAL2     0.900000E-01   1.00800           0
      9661 MEMB     72       POPS     C311     CTL2    -0.180000       12.0110           0
      9662 MEMB     72       POPS     H11X     HAL2     0.900000E-01   1.00800           0
      9663 MEMB     72       POPS     H11Y     HAL2     0.900000E-01   1.00800           0
      9664 MEMB     72       POPS     C312     CTL2    -0.180000       12.0110           0
      9665 MEMB     72       POPS     H12X     HAL2     0.900000E-01   1.00800           0
      9666 MEMB     72       POPS     H12Y     HAL2     0.900000E-01   1.00800           0
      9667 MEMB     72       POPS     C313     CTL2    -0.180000       12.0110           0
      9668 MEMB     72       POPS     H13X     HAL2     0.900000E-01   1.00800           0
      9669 MEMB     72       POPS     H13Y     HAL2     0.900000E-01   1.00800           0
      9670 MEMB     72       POPS     C314     CTL2    -0.180000       12.0110           0
      9671 MEMB     72       POPS     H14X     HAL2     0.900000E-01   1.00800           0
      9672 MEMB     72       POPS     H14Y     HAL2     0.900000E-01   1.00800           0
      9673 MEMB     72       POPS     C315     CTL2    -0.180000       12.0110           0
      9674 MEMB     72       POPS     H15X     HAL2     0.900000E-01   1.00800           0
      9675 MEMB     72       POPS     H15Y     HAL2     0.900000E-01   1.00800           0
      9676 MEMB     72       POPS     C316     CTL3    -0.270000       12.0110           0
      9677 MEMB     72       POPS     H16X     HAL3     0.900000E-01   1.00800           0
      9678 MEMB     72       POPS     H16Y     HAL3     0.900000E-01   1.00800           0
      9679 MEMB     72       POPS     H16Z     HAL3     0.900000E-01   1.00800           0
      9680 MEMB     73       POPC     N        NTL     -0.600000       14.0070           0
      9681 MEMB     73       POPC     C12      CTL2    -0.100000       12.0110           0
      9682 MEMB     73       POPC     H12A     HL       0.250000       1.00800           0
      9683 MEMB     73       POPC     H12B     HL       0.250000       1.00800           0
      9684 MEMB     73       POPC     C13      CTL5    -0.350000       12.0110           0
      9685 MEMB     73       POPC     H13A     HL       0.250000       1.00800           0
      9686 MEMB     73       POPC     H13B     HL       0.250000       1.00800           0
      9687 MEMB     73       POPC     H13C     HL       0.250000       1.00800           0
      9688 MEMB     73       POPC     C14      CTL5    -0.350000       12.0110           0
      9689 MEMB     73       POPC     H14A     HL       0.250000       1.00800           0
      9690 MEMB     73       POPC     H14B     HL       0.250000       1.00800           0
      9691 MEMB     73       POPC     H14C     HL       0.250000       1.00800           0
      9692 MEMB     73       POPC     C15      CTL5    -0.350000       12.0110           0
      9693 MEMB     73       POPC     H15A     HL       0.250000       1.00800           0
      9694 MEMB     73       POPC     H15B     HL       0.250000       1.00800           0
      9695 MEMB     73       POPC     H15C     HL       0.250000       1.00800           0
      9696 MEMB     73       POPC     C11      CTL2    -0.800000E-01   12.0110           0
      9697 MEMB     73       POPC     H11A     HAL2     0.900000E-01   1.00800           0
      9698 MEMB     73       POPC     H11B     HAL2     0.900000E-01   1.00800           0
      9699 MEMB     73       POPC     P        PL       1.500000       30.9740           0
      9700 MEMB     73       POPC     O13      O2L     -0.780000       15.9994           0
      9701 MEMB     73       POPC     O14      O2L     -0.780000       15.9994           0
      9702 MEMB     73       POPC     O12      OSLP    -0.570000       15.9994           0
      9703 MEMB     73       POPC     O11      OSLP    -0.570000       15.9994           0
      9704 MEMB     73       POPC     C1       CTL2    -0.800000E-01   12.0110           0
      9705 MEMB     73       POPC     HA       HAL2     0.900000E-01   1.00800           0
      9706 MEMB     73       POPC     HB       HAL2     0.900000E-01   1.00800           0
      9707 MEMB     73       POPC     C2       CTL1     0.170000       12.0110           0
      9708 MEMB     73       POPC     HS       HAL1     0.900000E-01   1.00800           0
      9709 MEMB     73       POPC     O21      OSL     -0.490000       15.9994           0
      9710 MEMB     73       POPC     C21      CL       0.900000       12.0110           0
      9711 MEMB     73       POPC     O22      OBL     -0.630000       15.9994           0
      9712 MEMB     73       POPC     C22      CTL2    -0.220000       12.0110           0
      9713 MEMB     73       POPC     H2R      HAL2     0.900000E-01   1.00800           0
      9714 MEMB     73       POPC     H2S      HAL2     0.900000E-01   1.00800           0
      9715 MEMB     73       POPC     C3       CTL2     0.800000E-01   12.0110           0
      9716 MEMB     73       POPC     HX       HAL2     0.900000E-01   1.00800           0
      9717 MEMB     73       POPC     HY       HAL2     0.900000E-01   1.00800           0
      9718 MEMB     73       POPC     O31      OSL     -0.490000       15.9994           0
      9719 MEMB     73       POPC     C31      CL       0.900000       12.0110           0
      9720 MEMB     73       POPC     O32      OBL     -0.630000       15.9994           0
      9721 MEMB     73       POPC     C32      CTL2    -0.220000       12.0110           0
      9722 MEMB     73       POPC     H2X      HAL2     0.900000E-01   1.00800           0
      9723 MEMB     73       POPC     H2Y      HAL2     0.900000E-01   1.00800           0
      9724 MEMB     73       POPC     C23      CTL2    -0.180000       12.0110           0
      9725 MEMB     73       POPC     H3R      HAL2     0.900000E-01   1.00800           0
      9726 MEMB     73       POPC     H3S      HAL2     0.900000E-01   1.00800           0
      9727 MEMB     73       POPC     C24      CTL2    -0.180000       12.0110           0
      9728 MEMB     73       POPC     H4R      HAL2     0.900000E-01   1.00800           0
      9729 MEMB     73       POPC     H4S      HAL2     0.900000E-01   1.00800           0
      9730 MEMB     73       POPC     C25      CTL2    -0.180000       12.0110           0
      9731 MEMB     73       POPC     H5R      HAL2     0.900000E-01   1.00800           0
      9732 MEMB     73       POPC     H5S      HAL2     0.900000E-01   1.00800           0
      9733 MEMB     73       POPC     C26      CTL2    -0.180000       12.0110           0
      9734 MEMB     73       POPC     H6R      HAL2     0.900000E-01   1.00800           0
      9735 MEMB     73       POPC     H6S      HAL2     0.900000E-01   1.00800           0
      9736 MEMB     73       POPC     C27      CTL2    -0.180000       12.0110           0
      9737 MEMB     73       POPC     H7R      HAL2     0.900000E-01   1.00800           0
      9738 MEMB     73       POPC     H7S      HAL2     0.900000E-01   1.00800           0
      9739 MEMB     73       POPC     C28      CTL2    -0.180000       12.0110           0
      9740 MEMB     73       POPC     H8R      HAL2     0.900000E-01   1.00800           0
      9741 MEMB     73       POPC     H8S      HAL2     0.900000E-01   1.00800           0
      9742 MEMB     73       POPC     C29      CEL1    -0.150000       12.0110           0
      9743 MEMB     73       POPC     H91      HEL1     0.150000       1.00800           0
      9744 MEMB     73       POPC     C210     CEL1    -0.150000       12.0110           0
      9745 MEMB     73       POPC     H101     HEL1     0.150000       1.00800           0
      9746 MEMB     73       POPC     C211     CTL2    -0.180000       12.0110           0
      9747 MEMB     73       POPC     H11R     HAL2     0.900000E-01   1.00800           0
      9748 MEMB     73       POPC     H11S     HAL2     0.900000E-01   1.00800           0
      9749 MEMB     73       POPC     C212     CTL2    -0.180000       12.0110           0
      9750 MEMB     73       POPC     H12R     HAL2     0.900000E-01   1.00800           0
      9751 MEMB     73       POPC     H12S     HAL2     0.900000E-01   1.00800           0
      9752 MEMB     73       POPC     C213     CTL2    -0.180000       12.0110           0
      9753 MEMB     73       POPC     H13R     HAL2     0.900000E-01   1.00800           0
      9754 MEMB     73       POPC     H13S     HAL2     0.900000E-01   1.00800           0
      9755 MEMB     73       POPC     C214     CTL2    -0.180000       12.0110           0
      9756 MEMB     73       POPC     H14R     HAL2     0.900000E-01   1.00800           0
      9757 MEMB     73       POPC     H14S     HAL2     0.900000E-01   1.00800           0
      9758 MEMB     73       POPC     C215     CTL2    -0.180000       12.0110           0
      9759 MEMB     73       POPC     H15R     HAL2     0.900000E-01   1.00800           0
      9760 MEMB     73       POPC     H15S     HAL2     0.900000E-01   1.00800           0
      9761 MEMB     73       POPC     C216     CTL2    -0.180000       12.0110           0
      9762 MEMB     73       POPC     H16R     HAL2     0.900000E-01   1.00800           0
      9763 MEMB     73       POPC     H16S     HAL2     0.900000E-01   1.00800           0
      9764 MEMB     73       POPC     C217     CTL2    -0.180000       12.0110           0
      9765 MEMB     73       POPC     H17R     HAL2     0.900000E-01   1.00800           0
      9766 MEMB     73       POPC     H17S     HAL2     0.900000E-01   1.00800           0
      9767 MEMB     73       POPC     C218     CTL3    -0.270000       12.0110           0
      9768 MEMB     73       POPC     H18R     HAL3     0.900000E-01   1.00800           0
      9769 MEMB     73       POPC     H18S     HAL3     0.900000E-01   1.00800           0
      9770 MEMB     73       POPC     H18T     HAL3     0.900000E-01   1.00800           0
      9771 MEMB     73       POPC     C33      CTL2    -0.180000       12.0110           0
      9772 MEMB     73       POPC     H3X      HAL2     0.900000E-01   1.00800           0
      9773 MEMB     73       POPC     H3Y      HAL2     0.900000E-01   1.00800           0
      9774 MEMB     73       POPC     C34      CTL2    -0.180000       12.0110           0
      9775 MEMB     73       POPC     H4X      HAL2     0.900000E-01   1.00800           0
      9776 MEMB     73       POPC     H4Y      HAL2     0.900000E-01   1.00800           0
      9777 MEMB     73       POPC     C35      CTL2    -0.180000       12.0110           0
      9778 MEMB     73       POPC     H5X      HAL2     0.900000E-01   1.00800           0
      9779 MEMB     73       POPC     H5Y      HAL2     0.900000E-01   1.00800           0
      9780 MEMB     73       POPC     C36      CTL2    -0.180000       12.0110           0
      9781 MEMB     73       POPC     H6X      HAL2     0.900000E-01   1.00800           0
      9782 MEMB     73       POPC     H6Y      HAL2     0.900000E-01   1.00800           0
      9783 MEMB     73       POPC     C37      CTL2    -0.180000       12.0110           0
      9784 MEMB     73       POPC     H7X      HAL2     0.900000E-01   1.00800           0
      9785 MEMB     73       POPC     H7Y      HAL2     0.900000E-01   1.00800           0
      9786 MEMB     73       POPC     C38      CTL2    -0.180000       12.0110           0
      9787 MEMB     73       POPC     H8X      HAL2     0.900000E-01   1.00800           0
      9788 MEMB     73       POPC     H8Y      HAL2     0.900000E-01   1.00800           0
      9789 MEMB     73       POPC     C39      CTL2    -0.180000       12.0110           0
      9790 MEMB     73       POPC     H9X      HAL2     0.900000E-01   1.00800           0
      9791 MEMB     73       POPC     H9Y      HAL2     0.900000E-01   1.00800           0
      9792 MEMB     73       POPC     C310     CTL2    -0.180000       12.0110           0
      9793 MEMB     73       POPC     H10X     HAL2     0.900000E-01   1.00800           0
      9794 MEMB     73       POPC     H10Y     HAL2     0.900000E-01   1.00800           0
      9795 MEMB     73       POPC     C311     CTL2    -0.180000       12.0110           0
      9796 MEMB     73       POPC     H11X     HAL2     0.900000E-01   1.00800           0
      9797 MEMB     73       POPC     H11Y     HAL2     0.900000E-01   1.00800           0
      9798 MEMB     73       POPC     C312     CTL2    -0.180000       12.0110           0
      9799 MEMB     73       POPC     H12X     HAL2     0.900000E-01   1.00800           0
      9800 MEMB     73       POPC     H12Y     HAL2     0.900000E-01   1.00800           0
      9801 MEMB     73       POPC     C313     CTL2    -0.180000       12.0110           0
      9802 MEMB     73       POPC     H13X     HAL2     0.900000E-01   1.00800           0
      9803 MEMB     73       POPC     H13Y     HAL2     0.900000E-01   1.00800           0
      9804 MEMB     73       POPC     C314     CTL2    -0.180000       12.0110           0
      9805 MEMB     73       POPC     H14X     HAL2     0.900000E-01   1.00800           0
      9806 MEMB     73       POPC     H14Y     HAL2     0.900000E-01   1.00800           0
      9807 MEMB     73       POPC     C315     CTL2    -0.180000       12.0110           0
      9808 MEMB     73       POPC     H15X     HAL2     0.900000E-01   1.00800           0
      9809 MEMB     73       POPC     H15Y     HAL2     0.900000E-01   1.00800           0
      9810 MEMB     73       POPC     C316     CTL3    -0.270000       12.0110           0
      9811 MEMB     73       POPC     H16X     HAL3     0.900000E-01   1.00800           0
      9812 MEMB     73       POPC     H16Y     HAL3     0.900000E-01   1.00800           0
      9813 MEMB     73       POPC     H16Z     HAL3     0.900000E-01   1.00800           0
      9814 MEMB     74       POPC     N        NTL     -0.600000       14.0070           0
      9815 MEMB     74       POPC     C12      CTL2    -0.100000       12.0110           0
      9816 MEMB     74       POPC     H12A     HL       0.250000       1.00800           0
      9817 MEMB     74       POPC     H12B     HL       0.250000       1.00800           0
      9818 MEMB     74       POPC     C13      CTL5    -0.350000       12.0110           0
      9819 MEMB     74       POPC     H13A     HL       0.250000       1.00800           0
      9820 MEMB     74       POPC     H13B     HL       0.250000       1.00800           0
      9821 MEMB     74       POPC     H13C     HL       0.250000       1.00800           0
      9822 MEMB     74       POPC     C14      CTL5    -0.350000       12.0110           0
      9823 MEMB     74       POPC     H14A     HL       0.250000       1.00800           0
      9824 MEMB     74       POPC     H14B     HL       0.250000       1.00800           0
      9825 MEMB     74       POPC     H14C     HL       0.250000       1.00800           0
      9826 MEMB     74       POPC     C15      CTL5    -0.350000       12.0110           0
      9827 MEMB     74       POPC     H15A     HL       0.250000       1.00800           0
      9828 MEMB     74       POPC     H15B     HL       0.250000       1.00800           0
      9829 MEMB     74       POPC     H15C     HL       0.250000       1.00800           0
      9830 MEMB     74       POPC     C11      CTL2    -0.800000E-01   12.0110           0
      9831 MEMB     74       POPC     H11A     HAL2     0.900000E-01   1.00800           0
      9832 MEMB     74       POPC     H11B     HAL2     0.900000E-01   1.00800           0
      9833 MEMB     74       POPC     P        PL       1.500000       30.9740           0
      9834 MEMB     74       POPC     O13      O2L     -0.780000       15.9994           0
      9835 MEMB     74       POPC     O14      O2L     -0.780000       15.9994           0
      9836 MEMB     74       POPC     O12      OSLP    -0.570000       15.9994           0
      9837 MEMB     74       POPC     O11      OSLP    -0.570000       15.9994           0
      9838 MEMB     74       POPC     C1       CTL2    -0.800000E-01   12.0110           0
      9839 MEMB     74       POPC     HA       HAL2     0.900000E-01   1.00800           0
      9840 MEMB     74       POPC     HB       HAL2     0.900000E-01   1.00800           0
      9841 MEMB     74       POPC     C2       CTL1     0.170000       12.0110           0
      9842 MEMB     74       POPC     HS       HAL1     0.900000E-01   1.00800           0
      9843 MEMB     74       POPC     O21      OSL     -0.490000       15.9994           0
      9844 MEMB     74       POPC     C21      CL       0.900000       12.0110           0
      9845 MEMB     74       POPC     O22      OBL     -0.630000       15.9994           0
      9846 MEMB     74       POPC     C22      CTL2    -0.220000       12.0110           0
      9847 MEMB     74       POPC     H2R      HAL2     0.900000E-01   1.00800           0
      9848 MEMB     74       POPC     H2S      HAL2     0.900000E-01   1.00800           0
      9849 MEMB     74       POPC     C3       CTL2     0.800000E-01   12.0110           0
      9850 MEMB     74       POPC     HX       HAL2     0.900000E-01   1.00800           0
      9851 MEMB     74       POPC     HY       HAL2     0.900000E-01   1.00800           0
      9852 MEMB     74       POPC     O31      OSL     -0.490000       15.9994           0
      9853 MEMB     74       POPC     C31      CL       0.900000       12.0110           0
      9854 MEMB     74       POPC     O32      OBL     -0.630000       15.9994           0
      9855 MEMB     74       POPC     C32      CTL2    -0.220000       12.0110           0
      9856 MEMB     74       POPC     H2X      HAL2     0.900000E-01   1.00800           0
      9857 MEMB     74       POPC     H2Y      HAL2     0.900000E-01   1.00800           0
      9858 MEMB     74       POPC     C23      CTL2    -0.180000       12.0110           0
      9859 MEMB     74       POPC     H3R      HAL2     0.900000E-01   1.00800           0
      9860 MEMB     74       POPC     H3S      HAL2     0.900000E-01   1.00800           0
      9861 MEMB     74       POPC     C24      CTL2    -0.180000       12.0110           0
      9862 MEMB     74       POPC     H4R      HAL2     0.900000E-01   1.00800           0
      9863 MEMB     74       POPC     H4S      HAL2     0.900000E-01   1.00800           0
      9864 MEMB     74       POPC     C25      CTL2    -0.180000       12.0110           0
      9865 MEMB     74       POPC     H5R      HAL2     0.900000E-01   1.00800           0
      9866 MEMB     74       POPC     H5S      HAL2     0.900000E-01   1.00800           0
      9867 MEMB     74       POPC     C26      CTL2    -0.180000       12.0110           0
      9868 MEMB     74       POPC     H6R      HAL2     0.900000E-01   1.00800           0
      9869 MEMB     74       POPC     H6S      HAL2     0.900000E-01   1.00800           0
      9870 MEMB     74       POPC     C27      CTL2    -0.180000       12.0110           0
      9871 MEMB     74       POPC     H7R      HAL2     0.900000E-01   1.00800           0
      9872 MEMB     74       POPC     H7S      HAL2     0.900000E-01   1.00800           0
      9873 MEMB     74       POPC     C28      CTL2    -0.180000       12.0110           0
      9874 MEMB     74       POPC     H8R      HAL2     0.900000E-01   1.00800           0
      9875 MEMB     74       POPC     H8S      HAL2     0.900000E-01   1.00800           0
      9876 MEMB     74       POPC     C29      CEL1    -0.150000       12.0110           0
      9877 MEMB     74       POPC     H91      HEL1     0.150000       1.00800           0
      9878 MEMB     74       POPC     C210     CEL1    -0.150000       12.0110           0
      9879 MEMB     74       POPC     H101     HEL1     0.150000       1.00800           0
      9880 MEMB     74       POPC     C211     CTL2    -0.180000       12.0110           0
      9881 MEMB     74       POPC     H11R     HAL2     0.900000E-01   1.00800           0
      9882 MEMB     74       POPC     H11S     HAL2     0.900000E-01   1.00800           0
      9883 MEMB     74       POPC     C212     CTL2    -0.180000       12.0110           0
      9884 MEMB     74       POPC     H12R     HAL2     0.900000E-01   1.00800           0
      9885 MEMB     74       POPC     H12S     HAL2     0.900000E-01   1.00800           0
      9886 MEMB     74       POPC     C213     CTL2    -0.180000       12.0110           0
      9887 MEMB     74       POPC     H13R     HAL2     0.900000E-01   1.00800           0
      9888 MEMB     74       POPC     H13S     HAL2     0.900000E-01   1.00800           0
      9889 MEMB     74       POPC     C214     CTL2    -0.180000       12.0110           0
      9890 MEMB     74       POPC     H14R     HAL2     0.900000E-01   1.00800           0
      9891 MEMB     74       POPC     H14S     HAL2     0.900000E-01   1.00800           0
      9892 MEMB     74       POPC     C215     CTL2    -0.180000       12.0110           0
      9893 MEMB     74       POPC     H15R     HAL2     0.900000E-01   1.00800           0
      9894 MEMB     74       POPC     H15S     HAL2     0.900000E-01   1.00800           0
      9895 MEMB     74       POPC     C216     CTL2    -0.180000       12.0110           0
      9896 MEMB     74       POPC     H16R     HAL2     0.900000E-01   1.00800           0
      9897 MEMB     74       POPC     H16S     HAL2     0.900000E-01   1.00800           0
      9898 MEMB     74       POPC     C217     CTL2    -0.180000       12.0110           0
      9899 MEMB     74       POPC     H17R     HAL2     0.900000E-01   1.00800           0
      9900 MEMB     74       POPC     H17S     HAL2     0.900000E-01   1.00800           0
      9901 MEMB     74       POPC     C218     CTL3    -0.270000       12.0110           0
      9902 MEMB     74       POPC     H18R     HAL3     0.900000E-01   1.00800           0
      9903 MEMB     74       POPC     H18S     HAL3     0.900000E-01   1.00800           0
      9904 MEMB     74       POPC     H18T     HAL3     0.900000E-01   1.00800           0
      9905 MEMB     74       POPC     C33      CTL2    -0.180000       12.0110           0
      9906 MEMB     74       POPC     H3X      HAL2     0.900000E-01   1.00800           0
      9907 MEMB     74       POPC     H3Y      HAL2     0.900000E-01   1.00800           0
      9908 MEMB     74       POPC     C34      CTL2    -0.180000       12.0110           0
      9909 MEMB     74       POPC     H4X      HAL2     0.900000E-01   1.00800           0
      9910 MEMB     74       POPC     H4Y      HAL2     0.900000E-01   1.00800           0
      9911 MEMB     74       POPC     C35      CTL2    -0.180000       12.0110           0
      9912 MEMB     74       POPC     H5X      HAL2     0.900000E-01   1.00800           0
      9913 MEMB     74       POPC     H5Y      HAL2     0.900000E-01   1.00800           0
      9914 MEMB     74       POPC     C36      CTL2    -0.180000       12.0110           0
      9915 MEMB     74       POPC     H6X      HAL2     0.900000E-01   1.00800           0
      9916 MEMB     74       POPC     H6Y      HAL2     0.900000E-01   1.00800           0
      9917 MEMB     74       POPC     C37      CTL2    -0.180000       12.0110           0
      9918 MEMB     74       POPC     H7X      HAL2     0.900000E-01   1.00800           0
      9919 MEMB     74       POPC     H7Y      HAL2     0.900000E-01   1.00800           0
      9920 MEMB     74       POPC     C38      CTL2    -0.180000       12.0110           0
      9921 MEMB     74       POPC     H8X      HAL2     0.900000E-01   1.00800           0
      9922 MEMB     74       POPC     H8Y      HAL2     0.900000E-01   1.00800           0
      9923 MEMB     74       POPC     C39      CTL2    -0.180000       12.0110           0
      9924 MEMB     74       POPC     H9X      HAL2     0.900000E-01   1.00800           0
      9925 MEMB     74       POPC     H9Y      HAL2     0.900000E-01   1.00800           0
      9926 MEMB     74       POPC     C310     CTL2    -0.180000       12.0110           0
      9927 MEMB     74       POPC     H10X     HAL2     0.900000E-01   1.00800           0
      9928 MEMB     74       POPC     H10Y     HAL2     0.900000E-01   1.00800           0
      9929 MEMB     74       POPC     C311     CTL2    -0.180000       12.0110           0
      9930 MEMB     74       POPC     H11X     HAL2     0.900000E-01   1.00800           0
      9931 MEMB     74       POPC     H11Y     HAL2     0.900000E-01   1.00800           0
      9932 MEMB     74       POPC     C312     CTL2    -0.180000       12.0110           0
      9933 MEMB     74       POPC     H12X     HAL2     0.900000E-01   1.00800           0
      9934 MEMB     74       POPC     H12Y     HAL2     0.900000E-01   1.00800           0
      9935 MEMB     74       POPC     C313     CTL2    -0.180000       12.0110           0
      9936 MEMB     74       POPC     H13X     HAL2     0.900000E-01   1.00800           0
      9937 MEMB     74       POPC     H13Y     HAL2     0.900000E-01   1.00800           0
      9938 MEMB     74       POPC     C314     CTL2    -0.180000       12.0110           0
      9939 MEMB     74       POPC     H14X     HAL2     0.900000E-01   1.00800           0
      9940 MEMB     74       POPC     H14Y     HAL2     0.900000E-01   1.00800           0
      9941 MEMB     74       POPC     C315     CTL2    -0.180000       12.0110           0
      9942 MEMB     74       POPC     H15X     HAL2     0.900000E-01   1.00800           0
      9943 MEMB     74       POPC     H15Y     HAL2     0.900000E-01   1.00800           0
      9944 MEMB     74       POPC     C316     CTL3    -0.270000       12.0110           0
      9945 MEMB     74       POPC     H16X     HAL3     0.900000E-01   1.00800           0
      9946 MEMB     74       POPC     H16Y     HAL3     0.900000E-01   1.00800           0
      9947 MEMB     74       POPC     H16Z     HAL3     0.900000E-01   1.00800           0
      9948 MEMB     75       POPC     N        NTL     -0.600000       14.0070           0
      9949 MEMB     75       POPC     C12      CTL2    -0.100000       12.0110           0
      9950 MEMB     75       POPC     H12A     HL       0.250000       1.00800           0
      9951 MEMB     75       POPC     H12B     HL       0.250000       1.00800           0
      9952 MEMB     75       POPC     C13      CTL5    -0.350000       12.0110           0
      9953 MEMB     75       POPC     H13A     HL       0.250000       1.00800           0
      9954 MEMB     75       POPC     H13B     HL       0.250000       1.00800           0
      9955 MEMB     75       POPC     H13C     HL       0.250000       1.00800           0
      9956 MEMB     75       POPC     C14      CTL5    -0.350000       12.0110           0
      9957 MEMB     75       POPC     H14A     HL       0.250000       1.00800           0
      9958 MEMB     75       POPC     H14B     HL       0.250000       1.00800           0
      9959 MEMB     75       POPC     H14C     HL       0.250000       1.00800           0
      9960 MEMB     75       POPC     C15      CTL5    -0.350000       12.0110           0
      9961 MEMB     75       POPC     H15A     HL       0.250000       1.00800           0
      9962 MEMB     75       POPC     H15B     HL       0.250000       1.00800           0
      9963 MEMB     75       POPC     H15C     HL       0.250000       1.00800           0
      9964 MEMB     75       POPC     C11      CTL2    -0.800000E-01   12.0110           0
      9965 MEMB     75       POPC     H11A     HAL2     0.900000E-01   1.00800           0
      9966 MEMB     75       POPC     H11B     HAL2     0.900000E-01   1.00800           0
      9967 MEMB     75       POPC     P        PL       1.500000       30.9740           0
      9968 MEMB     75       POPC     O13      O2L     -0.780000       15.9994           0
      9969 MEMB     75       POPC     O14      O2L     -0.780000       15.9994           0
      9970 MEMB     75       POPC     O12      OSLP    -0.570000       15.9994           0
      9971 MEMB     75       POPC     O11      OSLP    -0.570000       15.9994           0
      9972 MEMB     75       POPC     C1       CTL2    -0.800000E-01   12.0110           0
      9973 MEMB     75       POPC     HA       HAL2     0.900000E-01   1.00800           0
      9974 MEMB     75       POPC     HB       HAL2     0.900000E-01   1.00800           0
      9975 MEMB     75       POPC     C2       CTL1     0.170000       12.0110           0
      9976 MEMB     75       POPC     HS       HAL1     0.900000E-01   1.00800           0
      9977 MEMB     75       POPC     O21      OSL     -0.490000       15.9994           0
      9978 MEMB     75       POPC     C21      CL       0.900000       12.0110           0
      9979 MEMB     75       POPC     O22      OBL     -0.630000       15.9994           0
      9980 MEMB     75       POPC     C22      CTL2    -0.220000       12.0110           0
      9981 MEMB     75       POPC     H2R      HAL2     0.900000E-01   1.00800           0
      9982 MEMB     75       POPC     H2S      HAL2     0.900000E-01   1.00800           0
      9983 MEMB     75       POPC     C3       CTL2     0.800000E-01   12.0110           0
      9984 MEMB     75       POPC     HX       HAL2     0.900000E-01   1.00800           0
      9985 MEMB     75       POPC     HY       HAL2     0.900000E-01   1.00800           0
      9986 MEMB     75       POPC     O31      OSL     -0.490000       15.9994           0
      9987 MEMB     75       POPC     C31      CL       0.900000       12.0110           0
      9988 MEMB     75       POPC     O32      OBL     -0.630000       15.9994           0
      9989 MEMB     75       POPC     C32      CTL2    -0.220000       12.0110           0
      9990 MEMB     75       POPC     H2X      HAL2     0.900000E-01   1.00800           0
      9991 MEMB     75       POPC     H2Y      HAL2     0.900000E-01   1.00800           0
      9992 MEMB     75       POPC     C23      CTL2    -0.180000       12.0110           0
      9993 MEMB     75       POPC     H3R      HAL2     0.900000E-01   1.00800           0
      9994 MEMB     75       POPC     H3S      HAL2     0.900000E-01   1.00800           0
      9995 MEMB     75       POPC     C24      CTL2    -0.180000       12.0110           0
      9996 MEMB     75       POPC     H4R      HAL2     0.900000E-01   1.00800           0
      9997 MEMB     75       POPC     H4S      HAL2     0.900000E-01   1.00800           0
      9998 MEMB     75       POPC     C25      CTL2    -0.180000       12.0110           0
      9999 MEMB     75       POPC     H5R      HAL2     0.900000E-01   1.00800           0
     10000 MEMB     75       POPC     H5S      HAL2     0.900000E-01   1.00800           0
     10001 MEMB     75       POPC     C26      CTL2    -0.180000       12.0110           0
     10002 MEMB     75       POPC     H6R      HAL2     0.900000E-01   1.00800           0
     10003 MEMB     75       POPC     H6S      HAL2     0.900000E-01   1.00800           0
     10004 MEMB     75       POPC     C27      CTL2    -0.180000       12.0110           0
     10005 MEMB     75       POPC     H7R      HAL2     0.900000E-01   1.00800           0
     10006 MEMB     75       POPC     H7S      HAL2     0.900000E-01   1.00800           0
     10007 MEMB     75       POPC     C28      CTL2    -0.180000       12.0110           0
     10008 MEMB     75       POPC     H8R      HAL2     0.900000E-01   1.00800           0
     10009 MEMB     75       POPC     H8S      HAL2     0.900000E-01   1.00800           0
     10010 MEMB     75       POPC     C29      CEL1    -0.150000       12.0110           0
     10011 MEMB     75       POPC     H91      HEL1     0.150000       1.00800           0
     10012 MEMB     75       POPC     C210     CEL1    -0.150000       12.0110           0
     10013 MEMB     75       POPC     H101     HEL1     0.150000       1.00800           0
     10014 MEMB     75       POPC     C211     CTL2    -0.180000       12.0110           0
     10015 MEMB     75       POPC     H11R     HAL2     0.900000E-01   1.00800           0
     10016 MEMB     75       POPC     H11S     HAL2     0.900000E-01   1.00800           0
     10017 MEMB     75       POPC     C212     CTL2    -0.180000       12.0110           0
     10018 MEMB     75       POPC     H12R     HAL2     0.900000E-01   1.00800           0
     10019 MEMB     75       POPC     H12S     HAL2     0.900000E-01   1.00800           0
     10020 MEMB     75       POPC     C213     CTL2    -0.180000       12.0110           0
     10021 MEMB     75       POPC     H13R     HAL2     0.900000E-01   1.00800           0
     10022 MEMB     75       POPC     H13S     HAL2     0.900000E-01   1.00800           0
     10023 MEMB     75       POPC     C214     CTL2    -0.180000       12.0110           0
     10024 MEMB     75       POPC     H14R     HAL2     0.900000E-01   1.00800           0
     10025 MEMB     75       POPC     H14S     HAL2     0.900000E-01   1.00800           0
     10026 MEMB     75       POPC     C215     CTL2    -0.180000       12.0110           0
     10027 MEMB     75       POPC     H15R     HAL2     0.900000E-01   1.00800           0
     10028 MEMB     75       POPC     H15S     HAL2     0.900000E-01   1.00800           0
     10029 MEMB     75       POPC     C216     CTL2    -0.180000       12.0110           0
     10030 MEMB     75       POPC     H16R     HAL2     0.900000E-01   1.00800           0
     10031 MEMB     75       POPC     H16S     HAL2     0.900000E-01   1.00800           0
     10032 MEMB     75       POPC     C217     CTL2    -0.180000       12.0110           0
     10033 MEMB     75       POPC     H17R     HAL2     0.900000E-01   1.00800           0
     10034 MEMB     75       POPC     H17S     HAL2     0.900000E-01   1.00800           0
     10035 MEMB     75       POPC     C218     CTL3    -0.270000       12.0110           0
     10036 MEMB     75       POPC     H18R     HAL3     0.900000E-01   1.00800           0
     10037 MEMB     75       POPC     H18S     HAL3     0.900000E-01   1.00800           0
     10038 MEMB     75       POPC     H18T     HAL3     0.900000E-01   1.00800           0
     10039 MEMB     75       POPC     C33      CTL2    -0.180000       12.0110           0
     10040 MEMB     75       POPC     H3X      HAL2     0.900000E-01   1.00800           0
     10041 MEMB     75       POPC     H3Y      HAL2     0.900000E-01   1.00800           0
     10042 MEMB     75       POPC     C34      CTL2    -0.180000       12.0110           0
     10043 MEMB     75       POPC     H4X      HAL2     0.900000E-01   1.00800           0
     10044 MEMB     75       POPC     H4Y      HAL2     0.900000E-01   1.00800           0
     10045 MEMB     75       POPC     C35      CTL2    -0.180000       12.0110           0
     10046 MEMB     75       POPC     H5X      HAL2     0.900000E-01   1.00800           0
     10047 MEMB     75       POPC     H5Y      HAL2     0.900000E-01   1.00800           0
     10048 MEMB     75       POPC     C36      CTL2    -0.180000       12.0110           0
     10049 MEMB     75       POPC     H6X      HAL2     0.900000E-01   1.00800           0
     10050 MEMB     75       POPC     H6Y      HAL2     0.900000E-01   1.00800           0
     10051 MEMB     75       POPC     C37      CTL2    -0.180000       12.0110           0
     10052 MEMB     75       POPC     H7X      HAL2     0.900000E-01   1.00800           0
     10053 MEMB     75       POPC     H7Y      HAL2     0.900000E-01   1.00800           0
     10054 MEMB     75       POPC     C38      CTL2    -0.180000       12.0110           0
     10055 MEMB     75       POPC     H8X      HAL2     0.900000E-01   1.00800           0
     10056 MEMB     75       POPC     H8Y      HAL2     0.900000E-01   1.00800           0
     10057 MEMB     75       POPC     C39      CTL2    -0.180000       12.0110           0
     10058 MEMB     75       POPC     H9X      HAL2     0.900000E-01   1.00800           0
     10059 MEMB     75       POPC     H9Y      HAL2     0.900000E-01   1.00800           0
     10060 MEMB     75       POPC     C310     CTL2    -0.180000       12.0110           0
     10061 MEMB     75       POPC     H10X     HAL2     0.900000E-01   1.00800           0
     10062 MEMB     75       POPC     H10Y     HAL2     0.900000E-01   1.00800           0
     10063 MEMB     75       POPC     C311     CTL2    -0.180000       12.0110           0
     10064 MEMB     75       POPC     H11X     HAL2     0.900000E-01   1.00800           0
     10065 MEMB     75       POPC     H11Y     HAL2     0.900000E-01   1.00800           0
     10066 MEMB     75       POPC     C312     CTL2    -0.180000       12.0110           0
     10067 MEMB     75       POPC     H12X     HAL2     0.900000E-01   1.00800           0
     10068 MEMB     75       POPC     H12Y     HAL2     0.900000E-01   1.00800           0
     10069 MEMB     75       POPC     C313     CTL2    -0.180000       12.0110           0
     10070 MEMB     75       POPC     H13X     HAL2     0.900000E-01   1.00800           0
     10071 MEMB     75       POPC     H13Y     HAL2     0.900000E-01   1.00800           0
     10072 MEMB     75       POPC     C314     CTL2    -0.180000       12.0110           0
     10073 MEMB     75       POPC     H14X     HAL2     0.900000E-01   1.00800           0
     10074 MEMB     75       POPC     H14Y     HAL2     0.900000E-01   1.00800           0
     10075 MEMB     75       POPC     C315     CTL2    -0.180000       12.0110           0
     10076 MEMB     75       POPC     H15X     HAL2     0.900000E-01   1.00800           0
     10077 MEMB     75       POPC     H15Y     HAL2     0.900000E-01   1.00800           0
     10078 MEMB     75       POPC     C316     CTL3    -0.270000       12.0110           0
     10079 MEMB     75       POPC     H16X     HAL3     0.900000E-01   1.00800           0
     10080 MEMB     75       POPC     H16Y     HAL3     0.900000E-01   1.00800           0
     10081 MEMB     75       POPC     H16Z     HAL3     0.900000E-01   1.00800           0
     10082 MEMB     76       POPC     N        NTL     -0.600000       14.0070           0
     10083 MEMB     76       POPC     C12      CTL2    -0.100000       12.0110           0
     10084 MEMB     76       POPC     H12A     HL       0.250000       1.00800           0
     10085 MEMB     76       POPC     H12B     HL       0.250000       1.00800           0
     10086 MEMB     76       POPC     C13      CTL5    -0.350000       12.0110           0
     10087 MEMB     76       POPC     H13A     HL       0.250000       1.00800           0
     10088 MEMB     76       POPC     H13B     HL       0.250000       1.00800           0
     10089 MEMB     76       POPC     H13C     HL       0.250000       1.00800           0
     10090 MEMB     76       POPC     C14      CTL5    -0.350000       12.0110           0
     10091 MEMB     76       POPC     H14A     HL       0.250000       1.00800           0
     10092 MEMB     76       POPC     H14B     HL       0.250000       1.00800           0
     10093 MEMB     76       POPC     H14C     HL       0.250000       1.00800           0
     10094 MEMB     76       POPC     C15      CTL5    -0.350000       12.0110           0
     10095 MEMB     76       POPC     H15A     HL       0.250000       1.00800           0
     10096 MEMB     76       POPC     H15B     HL       0.250000       1.00800           0
     10097 MEMB     76       POPC     H15C     HL       0.250000       1.00800           0
     10098 MEMB     76       POPC     C11      CTL2    -0.800000E-01   12.0110           0
     10099 MEMB     76       POPC     H11A     HAL2     0.900000E-01   1.00800           0
     10100 MEMB     76       POPC     H11B     HAL2     0.900000E-01   1.00800           0
     10101 MEMB     76       POPC     P        PL       1.500000       30.9740           0
     10102 MEMB     76       POPC     O13      O2L     -0.780000       15.9994           0
     10103 MEMB     76       POPC     O14      O2L     -0.780000       15.9994           0
     10104 MEMB     76       POPC     O12      OSLP    -0.570000       15.9994           0
     10105 MEMB     76       POPC     O11      OSLP    -0.570000       15.9994           0
     10106 MEMB     76       POPC     C1       CTL2    -0.800000E-01   12.0110           0
     10107 MEMB     76       POPC     HA       HAL2     0.900000E-01   1.00800           0
     10108 MEMB     76       POPC     HB       HAL2     0.900000E-01   1.00800           0
     10109 MEMB     76       POPC     C2       CTL1     0.170000       12.0110           0
     10110 MEMB     76       POPC     HS       HAL1     0.900000E-01   1.00800           0
     10111 MEMB     76       POPC     O21      OSL     -0.490000       15.9994           0
     10112 MEMB     76       POPC     C21      CL       0.900000       12.0110           0
     10113 MEMB     76       POPC     O22      OBL     -0.630000       15.9994           0
     10114 MEMB     76       POPC     C22      CTL2    -0.220000       12.0110           0
     10115 MEMB     76       POPC     H2R      HAL2     0.900000E-01   1.00800           0
     10116 MEMB     76       POPC     H2S      HAL2     0.900000E-01   1.00800           0
     10117 MEMB     76       POPC     C3       CTL2     0.800000E-01   12.0110           0
     10118 MEMB     76       POPC     HX       HAL2     0.900000E-01   1.00800           0
     10119 MEMB     76       POPC     HY       HAL2     0.900000E-01   1.00800           0
     10120 MEMB     76       POPC     O31      OSL     -0.490000       15.9994           0
     10121 MEMB     76       POPC     C31      CL       0.900000       12.0110           0
     10122 MEMB     76       POPC     O32      OBL     -0.630000       15.9994           0
     10123 MEMB     76       POPC     C32      CTL2    -0.220000       12.0110           0
     10124 MEMB     76       POPC     H2X      HAL2     0.900000E-01   1.00800           0
     10125 MEMB     76       POPC     H2Y      HAL2     0.900000E-01   1.00800           0
     10126 MEMB     76       POPC     C23      CTL2    -0.180000       12.0110           0
     10127 MEMB     76       POPC     H3R      HAL2     0.900000E-01   1.00800           0
     10128 MEMB     76       POPC     H3S      HAL2     0.900000E-01   1.00800           0
     10129 MEMB     76       POPC     C24      CTL2    -0.180000       12.0110           0
     10130 MEMB     76       POPC     H4R      HAL2     0.900000E-01   1.00800           0
     10131 MEMB     76       POPC     H4S      HAL2     0.900000E-01   1.00800           0
     10132 MEMB     76       POPC     C25      CTL2    -0.180000       12.0110           0
     10133 MEMB     76       POPC     H5R      HAL2     0.900000E-01   1.00800           0
     10134 MEMB     76       POPC     H5S      HAL2     0.900000E-01   1.00800           0
     10135 MEMB     76       POPC     C26      CTL2    -0.180000       12.0110           0
     10136 MEMB     76       POPC     H6R      HAL2     0.900000E-01   1.00800           0
     10137 MEMB     76       POPC     H6S      HAL2     0.900000E-01   1.00800           0
     10138 MEMB     76       POPC     C27      CTL2    -0.180000       12.0110           0
     10139 MEMB     76       POPC     H7R      HAL2     0.900000E-01   1.00800           0
     10140 MEMB     76       POPC     H7S      HAL2     0.900000E-01   1.00800           0
     10141 MEMB     76       POPC     C28      CTL2    -0.180000       12.0110           0
     10142 MEMB     76       POPC     H8R      HAL2     0.900000E-01   1.00800           0
     10143 MEMB     76       POPC     H8S      HAL2     0.900000E-01   1.00800           0
     10144 MEMB     76       POPC     C29      CEL1    -0.150000       12.0110           0
     10145 MEMB     76       POPC     H91      HEL1     0.150000       1.00800           0
     10146 MEMB     76       POPC     C210     CEL1    -0.150000       12.0110           0
     10147 MEMB     76       POPC     H101     HEL1     0.150000       1.00800           0
     10148 MEMB     76       POPC     C211     CTL2    -0.180000       12.0110           0
     10149 MEMB     76       POPC     H11R     HAL2     0.900000E-01   1.00800           0
     10150 MEMB     76       POPC     H11S     HAL2     0.900000E-01   1.00800           0
     10151 MEMB     76       POPC     C212     CTL2    -0.180000       12.0110           0
     10152 MEMB     76       POPC     H12R     HAL2     0.900000E-01   1.00800           0
     10153 MEMB     76       POPC     H12S     HAL2     0.900000E-01   1.00800           0
     10154 MEMB     76       POPC     C213     CTL2    -0.180000       12.0110           0
     10155 MEMB     76       POPC     H13R     HAL2     0.900000E-01   1.00800           0
     10156 MEMB     76       POPC     H13S     HAL2     0.900000E-01   1.00800           0
     10157 MEMB     76       POPC     C214     CTL2    -0.180000       12.0110           0
     10158 MEMB     76       POPC     H14R     HAL2     0.900000E-01   1.00800           0
     10159 MEMB     76       POPC     H14S     HAL2     0.900000E-01   1.00800           0
     10160 MEMB     76       POPC     C215     CTL2    -0.180000       12.0110           0
     10161 MEMB     76       POPC     H15R     HAL2     0.900000E-01   1.00800           0
     10162 MEMB     76       POPC     H15S     HAL2     0.900000E-01   1.00800           0
     10163 MEMB     76       POPC     C216     CTL2    -0.180000       12.0110           0
     10164 MEMB     76       POPC     H16R     HAL2     0.900000E-01   1.00800           0
     10165 MEMB     76       POPC     H16S     HAL2     0.900000E-01   1.00800           0
     10166 MEMB     76       POPC     C217     CTL2    -0.180000       12.0110           0
     10167 MEMB     76       POPC     H17R     HAL2     0.900000E-01   1.00800           0
     10168 MEMB     76       POPC     H17S     HAL2     0.900000E-01   1.00800           0
     10169 MEMB     76       POPC     C218     CTL3    -0.270000       12.0110           0
     10170 MEMB     76       POPC     H18R     HAL3     0.900000E-01   1.00800           0
     10171 MEMB     76       POPC     H18S     HAL3     0.900000E-01   1.00800           0
     10172 MEMB     76       POPC     H18T     HAL3     0.900000E-01   1.00800           0
     10173 MEMB     76       POPC     C33      CTL2    -0.180000       12.0110           0
     10174 MEMB     76       POPC     H3X      HAL2     0.900000E-01   1.00800           0
     10175 MEMB     76       POPC     H3Y      HAL2     0.900000E-01   1.00800           0
     10176 MEMB     76       POPC     C34      CTL2    -0.180000       12.0110           0
     10177 MEMB     76       POPC     H4X      HAL2     0.900000E-01   1.00800           0
     10178 MEMB     76       POPC     H4Y      HAL2     0.900000E-01   1.00800           0
     10179 MEMB     76       POPC     C35      CTL2    -0.180000       12.0110           0
     10180 MEMB     76       POPC     H5X      HAL2     0.900000E-01   1.00800           0
     10181 MEMB     76       POPC     H5Y      HAL2     0.900000E-01   1.00800           0
     10182 MEMB     76       POPC     C36      CTL2    -0.180000       12.0110           0
     10183 MEMB     76       POPC     H6X      HAL2     0.900000E-01   1.00800           0
     10184 MEMB     76       POPC     H6Y      HAL2     0.900000E-01   1.00800           0
     10185 MEMB     76       POPC     C37      CTL2    -0.180000       12.0110           0
     10186 MEMB     76       POPC     H7X      HAL2     0.900000E-01   1.00800           0
     10187 MEMB     76       POPC     H7Y      HAL2     0.900000E-01   1.00800           0
     10188 MEMB     76       POPC     C38      CTL2    -0.180000       12.0110           0
     10189 MEMB     76       POPC     H8X      HAL2     0.900000E-01   1.00800           0
     10190 MEMB     76       POPC     H8Y      HAL2     0.900000E-01   1.00800           0
     10191 MEMB     76       POPC     C39      CTL2    -0.180000       12.0110           0
     10192 MEMB     76       POPC     H9X      HAL2     0.900000E-01   1.00800           0
     10193 MEMB     76       POPC     H9Y      HAL2     0.900000E-01   1.00800           0
     10194 MEMB     76       POPC     C310     CTL2    -0.180000       12.0110           0
     10195 MEMB     76       POPC     H10X     HAL2     0.900000E-01   1.00800           0
     10196 MEMB     76       POPC     H10Y     HAL2     0.900000E-01   1.00800           0
     10197 MEMB     76       POPC     C311     CTL2    -0.180000       12.0110           0
     10198 MEMB     76       POPC     H11X     HAL2     0.900000E-01   1.00800           0
     10199 MEMB     76       POPC     H11Y     HAL2     0.900000E-01   1.00800           0
     10200 MEMB     76       POPC     C312     CTL2    -0.180000       12.0110           0
     10201 MEMB     76       POPC     H12X     HAL2     0.900000E-01   1.00800           0
     10202 MEMB     76       POPC     H12Y     HAL2     0.900000E-01   1.00800           0
     10203 MEMB     76       POPC     C313     CTL2    -0.180000       12.0110           0
     10204 MEMB     76       POPC     H13X     HAL2     0.900000E-01   1.00800           0
     10205 MEMB     76       POPC     H13Y     HAL2     0.900000E-01   1.00800           0
     10206 MEMB     76       POPC     C314     CTL2    -0.180000       12.0110           0
     10207 MEMB     76       POPC     H14X     HAL2     0.900000E-01   1.00800           0
     10208 MEMB     76       POPC     H14Y     HAL2     0.900000E-01   1.00800           0
     10209 MEMB     76       POPC     C315     CTL2    -0.180000       12.0110           0
     10210 MEMB     76       POPC     H15X     HAL2     0.900000E-01   1.00800           0
     10211 MEMB     76       POPC     H15Y     HAL2     0.900000E-01   1.00800           0
     10212 MEMB     76       POPC     C316     CTL3    -0.270000       12.0110           0
     10213 MEMB     76       POPC     H16X     HAL3     0.900000E-01   1.00800           0
     10214 MEMB     76       POPC     H16Y     HAL3     0.900000E-01   1.00800           0
     10215 MEMB     76       POPC     H16Z     HAL3     0.900000E-01   1.00800           0
     10216 MEMB     77       POPS     N        NH3L    -0.300000       14.0070           0
     10217 MEMB     77       POPS     HN1      HCL      0.330000       1.00800           0
     10218 MEMB     77       POPS     HN2      HCL      0.330000       1.00800           0
     10219 MEMB     77       POPS     HN3      HCL      0.330000       1.00800           0
     10220 MEMB     77       POPS     C12      CTL1     0.210000       12.0110           0
     10221 MEMB     77       POPS     H12A     HBL      0.100000       1.00800           0
     10222 MEMB     77       POPS     C13      CCL      0.340000       12.0110           0
     10223 MEMB     77       POPS     O13A     OCL     -0.670000       15.9994           0
     10224 MEMB     77       POPS     O13B     OCL     -0.670000       15.9994           0
     10225 MEMB     77       POPS     C11      CTL2    -0.800000E-01   12.0110           0
     10226 MEMB     77       POPS     H11A     HAL2     0.900000E-01   1.00800           0
     10227 MEMB     77       POPS     H11B     HAL2     0.900000E-01   1.00800           0
     10228 MEMB     77       POPS     P        PL       1.500000       30.9740           0
     10229 MEMB     77       POPS     O13      O2L     -0.780000       15.9994           0
     10230 MEMB     77       POPS     O14      O2L     -0.780000       15.9994           0
     10231 MEMB     77       POPS     O12      OSLP    -0.570000       15.9994           0
     10232 MEMB     77       POPS     O11      OSLP    -0.570000       15.9994           0
     10233 MEMB     77       POPS     C1       CTL2    -0.800000E-01   12.0110           0
     10234 MEMB     77       POPS     HA       HAL2     0.900000E-01   1.00800           0
     10235 MEMB     77       POPS     HB       HAL2     0.900000E-01   1.00800           0
     10236 MEMB     77       POPS     C2       CTL1     0.170000       12.0110           0
     10237 MEMB     77       POPS     HS       HAL1     0.900000E-01   1.00800           0
     10238 MEMB     77       POPS     O21      OSL     -0.490000       15.9994           0
     10239 MEMB     77       POPS     C21      CL       0.900000       12.0110           0
     10240 MEMB     77       POPS     O22      OBL     -0.630000       15.9994           0
     10241 MEMB     77       POPS     C22      CTL2    -0.220000       12.0110           0
     10242 MEMB     77       POPS     H2R      HAL2     0.900000E-01   1.00800           0
     10243 MEMB     77       POPS     H2S      HAL2     0.900000E-01   1.00800           0
     10244 MEMB     77       POPS     C3       CTL2     0.800000E-01   12.0110           0
     10245 MEMB     77       POPS     HX       HAL2     0.900000E-01   1.00800           0
     10246 MEMB     77       POPS     HY       HAL2     0.900000E-01   1.00800           0
     10247 MEMB     77       POPS     O31      OSL     -0.490000       15.9994           0
     10248 MEMB     77       POPS     C31      CL       0.900000       12.0110           0
     10249 MEMB     77       POPS     O32      OBL     -0.630000       15.9994           0
     10250 MEMB     77       POPS     C32      CTL2    -0.220000       12.0110           0
     10251 MEMB     77       POPS     H2X      HAL2     0.900000E-01   1.00800           0
     10252 MEMB     77       POPS     H2Y      HAL2     0.900000E-01   1.00800           0
     10253 MEMB     77       POPS     C23      CTL2    -0.180000       12.0110           0
     10254 MEMB     77       POPS     H3R      HAL2     0.900000E-01   1.00800           0
     10255 MEMB     77       POPS     H3S      HAL2     0.900000E-01   1.00800           0
     10256 MEMB     77       POPS     C24      CTL2    -0.180000       12.0110           0
     10257 MEMB     77       POPS     H4R      HAL2     0.900000E-01   1.00800           0
     10258 MEMB     77       POPS     H4S      HAL2     0.900000E-01   1.00800           0
     10259 MEMB     77       POPS     C25      CTL2    -0.180000       12.0110           0
     10260 MEMB     77       POPS     H5R      HAL2     0.900000E-01   1.00800           0
     10261 MEMB     77       POPS     H5S      HAL2     0.900000E-01   1.00800           0
     10262 MEMB     77       POPS     C26      CTL2    -0.180000       12.0110           0
     10263 MEMB     77       POPS     H6R      HAL2     0.900000E-01   1.00800           0
     10264 MEMB     77       POPS     H6S      HAL2     0.900000E-01   1.00800           0
     10265 MEMB     77       POPS     C27      CTL2    -0.180000       12.0110           0
     10266 MEMB     77       POPS     H7R      HAL2     0.900000E-01   1.00800           0
     10267 MEMB     77       POPS     H7S      HAL2     0.900000E-01   1.00800           0
     10268 MEMB     77       POPS     C28      CTL2    -0.180000       12.0110           0
     10269 MEMB     77       POPS     H8R      HAL2     0.900000E-01   1.00800           0
     10270 MEMB     77       POPS     H8S      HAL2     0.900000E-01   1.00800           0
     10271 MEMB     77       POPS     C29      CEL1    -0.150000       12.0110           0
     10272 MEMB     77       POPS     H91      HEL1     0.150000       1.00800           0
     10273 MEMB     77       POPS     C210     CEL1    -0.150000       12.0110           0
     10274 MEMB     77       POPS     H101     HEL1     0.150000       1.00800           0
     10275 MEMB     77       POPS     C211     CTL2    -0.180000       12.0110           0
     10276 MEMB     77       POPS     H11R     HAL2     0.900000E-01   1.00800           0
     10277 MEMB     77       POPS     H11S     HAL2     0.900000E-01   1.00800           0
     10278 MEMB     77       POPS     C212     CTL2    -0.180000       12.0110           0
     10279 MEMB     77       POPS     H12R     HAL2     0.900000E-01   1.00800           0
     10280 MEMB     77       POPS     H12S     HAL2     0.900000E-01   1.00800           0
     10281 MEMB     77       POPS     C213     CTL2    -0.180000       12.0110           0
     10282 MEMB     77       POPS     H13R     HAL2     0.900000E-01   1.00800           0
     10283 MEMB     77       POPS     H13S     HAL2     0.900000E-01   1.00800           0
     10284 MEMB     77       POPS     C214     CTL2    -0.180000       12.0110           0
     10285 MEMB     77       POPS     H14R     HAL2     0.900000E-01   1.00800           0
     10286 MEMB     77       POPS     H14S     HAL2     0.900000E-01   1.00800           0
     10287 MEMB     77       POPS     C215     CTL2    -0.180000       12.0110           0
     10288 MEMB     77       POPS     H15R     HAL2     0.900000E-01   1.00800           0
     10289 MEMB     77       POPS     H15S     HAL2     0.900000E-01   1.00800           0
     10290 MEMB     77       POPS     C216     CTL2    -0.180000       12.0110           0
     10291 MEMB     77       POPS     H16R     HAL2     0.900000E-01   1.00800           0
     10292 MEMB     77       POPS     H16S     HAL2     0.900000E-01   1.00800           0
     10293 MEMB     77       POPS     C217     CTL2    -0.180000       12.0110           0
     10294 MEMB     77       POPS     H17R     HAL2     0.900000E-01   1.00800           0
     10295 MEMB     77       POPS     H17S     HAL2     0.900000E-01   1.00800           0
     10296 MEMB     77       POPS     C218     CTL3    -0.270000       12.0110           0
     10297 MEMB     77       POPS     H18R     HAL3     0.900000E-01   1.00800           0
     10298 MEMB     77       POPS     H18S     HAL3     0.900000E-01   1.00800           0
     10299 MEMB     77       POPS     H18T     HAL3     0.900000E-01   1.00800           0
     10300 MEMB     77       POPS     C33      CTL2    -0.180000       12.0110           0
     10301 MEMB     77       POPS     H3X      HAL2     0.900000E-01   1.00800           0
     10302 MEMB     77       POPS     H3Y      HAL2     0.900000E-01   1.00800           0
     10303 MEMB     77       POPS     C34      CTL2    -0.180000       12.0110           0
     10304 MEMB     77       POPS     H4X      HAL2     0.900000E-01   1.00800           0
     10305 MEMB     77       POPS     H4Y      HAL2     0.900000E-01   1.00800           0
     10306 MEMB     77       POPS     C35      CTL2    -0.180000       12.0110           0
     10307 MEMB     77       POPS     H5X      HAL2     0.900000E-01   1.00800           0
     10308 MEMB     77       POPS     H5Y      HAL2     0.900000E-01   1.00800           0
     10309 MEMB     77       POPS     C36      CTL2    -0.180000       12.0110           0
     10310 MEMB     77       POPS     H6X      HAL2     0.900000E-01   1.00800           0
     10311 MEMB     77       POPS     H6Y      HAL2     0.900000E-01   1.00800           0
     10312 MEMB     77       POPS     C37      CTL2    -0.180000       12.0110           0
     10313 MEMB     77       POPS     H7X      HAL2     0.900000E-01   1.00800           0
     10314 MEMB     77       POPS     H7Y      HAL2     0.900000E-01   1.00800           0
     10315 MEMB     77       POPS     C38      CTL2    -0.180000       12.0110           0
     10316 MEMB     77       POPS     H8X      HAL2     0.900000E-01   1.00800           0
     10317 MEMB     77       POPS     H8Y      HAL2     0.900000E-01   1.00800           0
     10318 MEMB     77       POPS     C39      CTL2    -0.180000       12.0110           0
     10319 MEMB     77       POPS     H9X      HAL2     0.900000E-01   1.00800           0
     10320 MEMB     77       POPS     H9Y      HAL2     0.900000E-01   1.00800           0
     10321 MEMB     77       POPS     C310     CTL2    -0.180000       12.0110           0
     10322 MEMB     77       POPS     H10X     HAL2     0.900000E-01   1.00800           0
     10323 MEMB     77       POPS     H10Y     HAL2     0.900000E-01   1.00800           0
     10324 MEMB     77       POPS     C311     CTL2    -0.180000       12.0110           0
     10325 MEMB     77       POPS     H11X     HAL2     0.900000E-01   1.00800           0
     10326 MEMB     77       POPS     H11Y     HAL2     0.900000E-01   1.00800           0
     10327 MEMB     77       POPS     C312     CTL2    -0.180000       12.0110           0
     10328 MEMB     77       POPS     H12X     HAL2     0.900000E-01   1.00800           0
     10329 MEMB     77       POPS     H12Y     HAL2     0.900000E-01   1.00800           0
     10330 MEMB     77       POPS     C313     CTL2    -0.180000       12.0110           0
     10331 MEMB     77       POPS     H13X     HAL2     0.900000E-01   1.00800           0
     10332 MEMB     77       POPS     H13Y     HAL2     0.900000E-01   1.00800           0
     10333 MEMB     77       POPS     C314     CTL2    -0.180000       12.0110           0
     10334 MEMB     77       POPS     H14X     HAL2     0.900000E-01   1.00800           0
     10335 MEMB     77       POPS     H14Y     HAL2     0.900000E-01   1.00800           0
     10336 MEMB     77       POPS     C315     CTL2    -0.180000       12.0110           0
     10337 MEMB     77       POPS     H15X     HAL2     0.900000E-01   1.00800           0
     10338 MEMB     77       POPS     H15Y     HAL2     0.900000E-01   1.00800           0
     10339 MEMB     77       POPS     C316     CTL3    -0.270000       12.0110           0
     10340 MEMB     77       POPS     H16X     HAL3     0.900000E-01   1.00800           0
     10341 MEMB     77       POPS     H16Y     HAL3     0.900000E-01   1.00800           0
     10342 MEMB     77       POPS     H16Z     HAL3     0.900000E-01   1.00800           0
     10343 MEMB     78       POPC     N        NTL     -0.600000       14.0070           0
     10344 MEMB     78       POPC     C12      CTL2    -0.100000       12.0110           0
     10345 MEMB     78       POPC     H12A     HL       0.250000       1.00800           0
     10346 MEMB     78       POPC     H12B     HL       0.250000       1.00800           0
     10347 MEMB     78       POPC     C13      CTL5    -0.350000       12.0110           0
     10348 MEMB     78       POPC     H13A     HL       0.250000       1.00800           0
     10349 MEMB     78       POPC     H13B     HL       0.250000       1.00800           0
     10350 MEMB     78       POPC     H13C     HL       0.250000       1.00800           0
     10351 MEMB     78       POPC     C14      CTL5    -0.350000       12.0110           0
     10352 MEMB     78       POPC     H14A     HL       0.250000       1.00800           0
     10353 MEMB     78       POPC     H14B     HL       0.250000       1.00800           0
     10354 MEMB     78       POPC     H14C     HL       0.250000       1.00800           0
     10355 MEMB     78       POPC     C15      CTL5    -0.350000       12.0110           0
     10356 MEMB     78       POPC     H15A     HL       0.250000       1.00800           0
     10357 MEMB     78       POPC     H15B     HL       0.250000       1.00800           0
     10358 MEMB     78       POPC     H15C     HL       0.250000       1.00800           0
     10359 MEMB     78       POPC     C11      CTL2    -0.800000E-01   12.0110           0
     10360 MEMB     78       POPC     H11A     HAL2     0.900000E-01   1.00800           0
     10361 MEMB     78       POPC     H11B     HAL2     0.900000E-01   1.00800           0
     10362 MEMB     78       POPC     P        PL       1.500000       30.9740           0
     10363 MEMB     78       POPC     O13      O2L     -0.780000       15.9994           0
     10364 MEMB     78       POPC     O14      O2L     -0.780000       15.9994           0
     10365 MEMB     78       POPC     O12      OSLP    -0.570000       15.9994           0
     10366 MEMB     78       POPC     O11      OSLP    -0.570000       15.9994           0
     10367 MEMB     78       POPC     C1       CTL2    -0.800000E-01   12.0110           0
     10368 MEMB     78       POPC     HA       HAL2     0.900000E-01   1.00800           0
     10369 MEMB     78       POPC     HB       HAL2     0.900000E-01   1.00800           0
     10370 MEMB     78       POPC     C2       CTL1     0.170000       12.0110           0
     10371 MEMB     78       POPC     HS       HAL1     0.900000E-01   1.00800           0
     10372 MEMB     78       POPC     O21      OSL     -0.490000       15.9994           0
     10373 MEMB     78       POPC     C21      CL       0.900000       12.0110           0
     10374 MEMB     78       POPC     O22      OBL     -0.630000       15.9994           0
     10375 MEMB     78       POPC     C22      CTL2    -0.220000       12.0110           0
     10376 MEMB     78       POPC     H2R      HAL2     0.900000E-01   1.00800           0
     10377 MEMB     78       POPC     H2S      HAL2     0.900000E-01   1.00800           0
     10378 MEMB     78       POPC     C3       CTL2     0.800000E-01   12.0110           0
     10379 MEMB     78       POPC     HX       HAL2     0.900000E-01   1.00800           0
     10380 MEMB     78       POPC     HY       HAL2     0.900000E-01   1.00800           0
     10381 MEMB     78       POPC     O31      OSL     -0.490000       15.9994           0
     10382 MEMB     78       POPC     C31      CL       0.900000       12.0110           0
     10383 MEMB     78       POPC     O32      OBL     -0.630000       15.9994           0
     10384 MEMB     78       POPC     C32      CTL2    -0.220000       12.0110           0
     10385 MEMB     78       POPC     H2X      HAL2     0.900000E-01   1.00800           0
     10386 MEMB     78       POPC     H2Y      HAL2     0.900000E-01   1.00800           0
     10387 MEMB     78       POPC     C23      CTL2    -0.180000       12.0110           0
     10388 MEMB     78       POPC     H3R      HAL2     0.900000E-01   1.00800           0
     10389 MEMB     78       POPC     H3S      HAL2     0.900000E-01   1.00800           0
     10390 MEMB     78       POPC     C24      CTL2    -0.180000       12.0110           0
     10391 MEMB     78       POPC     H4R      HAL2     0.900000E-01   1.00800           0
     10392 MEMB     78       POPC     H4S      HAL2     0.900000E-01   1.00800           0
     10393 MEMB     78       POPC     C25      CTL2    -0.180000       12.0110           0
     10394 MEMB     78       POPC     H5R      HAL2     0.900000E-01   1.00800           0
     10395 MEMB     78       POPC     H5S      HAL2     0.900000E-01   1.00800           0
     10396 MEMB     78       POPC     C26      CTL2    -0.180000       12.0110           0
     10397 MEMB     78       POPC     H6R      HAL2     0.900000E-01   1.00800           0
     10398 MEMB     78       POPC     H6S      HAL2     0.900000E-01   1.00800           0
     10399 MEMB     78       POPC     C27      CTL2    -0.180000       12.0110           0
     10400 MEMB     78       POPC     H7R      HAL2     0.900000E-01   1.00800           0
     10401 MEMB     78       POPC     H7S      HAL2     0.900000E-01   1.00800           0
     10402 MEMB     78       POPC     C28      CTL2    -0.180000       12.0110           0
     10403 MEMB     78       POPC     H8R      HAL2     0.900000E-01   1.00800           0
     10404 MEMB     78       POPC     H8S      HAL2     0.900000E-01   1.00800           0
     10405 MEMB     78       POPC     C29      CEL1    -0.150000       12.0110           0
     10406 MEMB     78       POPC     H91      HEL1     0.150000       1.00800           0
     10407 MEMB     78       POPC     C210     CEL1    -0.150000       12.0110           0
     10408 MEMB     78       POPC     H101     HEL1     0.150000       1.00800           0
     10409 MEMB     78       POPC     C211     CTL2    -0.180000       12.0110           0
     10410 MEMB     78       POPC     H11R     HAL2     0.900000E-01   1.00800           0
     10411 MEMB     78       POPC     H11S     HAL2     0.900000E-01   1.00800           0
     10412 MEMB     78       POPC     C212     CTL2    -0.180000       12.0110           0
     10413 MEMB     78       POPC     H12R     HAL2     0.900000E-01   1.00800           0
     10414 MEMB     78       POPC     H12S     HAL2     0.900000E-01   1.00800           0
     10415 MEMB     78       POPC     C213     CTL2    -0.180000       12.0110           0
     10416 MEMB     78       POPC     H13R     HAL2     0.900000E-01   1.00800           0
     10417 MEMB     78       POPC     H13S     HAL2     0.900000E-01   1.00800           0
     10418 MEMB     78       POPC     C214     CTL2    -0.180000       12.0110           0
     10419 MEMB     78       POPC     H14R     HAL2     0.900000E-01   1.00800           0
     10420 MEMB     78       POPC     H14S     HAL2     0.900000E-01   1.00800           0
     10421 MEMB     78       POPC     C215     CTL2    -0.180000       12.0110           0
     10422 MEMB     78       POPC     H15R     HAL2     0.900000E-01   1.00800           0
     10423 MEMB     78       POPC     H15S     HAL2     0.900000E-01   1.00800           0
     10424 MEMB     78       POPC     C216     CTL2    -0.180000       12.0110           0
     10425 MEMB     78       POPC     H16R     HAL2     0.900000E-01   1.00800           0
     10426 MEMB     78       POPC     H16S     HAL2     0.900000E-01   1.00800           0
     10427 MEMB     78       POPC     C217     CTL2    -0.180000       12.0110           0
     10428 MEMB     78       POPC     H17R     HAL2     0.900000E-01   1.00800           0
     10429 MEMB     78       POPC     H17S     HAL2     0.900000E-01   1.00800           0
     10430 MEMB     78       POPC     C218     CTL3    -0.270000       12.0110           0
     10431 MEMB     78       POPC     H18R     HAL3     0.900000E-01   1.00800           0
     10432 MEMB     78       POPC     H18S     HAL3     0.900000E-01   1.00800           0
     10433 MEMB     78       POPC     H18T     HAL3     0.900000E-01   1.00800           0
     10434 MEMB     78       POPC     C33      CTL2    -0.180000       12.0110           0
     10435 MEMB     78       POPC     H3X      HAL2     0.900000E-01   1.00800           0
     10436 MEMB     78       POPC     H3Y      HAL2     0.900000E-01   1.00800           0
     10437 MEMB     78       POPC     C34      CTL2    -0.180000       12.0110           0
     10438 MEMB     78       POPC     H4X      HAL2     0.900000E-01   1.00800           0
     10439 MEMB     78       POPC     H4Y      HAL2     0.900000E-01   1.00800           0
     10440 MEMB     78       POPC     C35      CTL2    -0.180000       12.0110           0
     10441 MEMB     78       POPC     H5X      HAL2     0.900000E-01   1.00800           0
     10442 MEMB     78       POPC     H5Y      HAL2     0.900000E-01   1.00800           0
     10443 MEMB     78       POPC     C36      CTL2    -0.180000       12.0110           0
     10444 MEMB     78       POPC     H6X      HAL2     0.900000E-01   1.00800           0
     10445 MEMB     78       POPC     H6Y      HAL2     0.900000E-01   1.00800           0
     10446 MEMB     78       POPC     C37      CTL2    -0.180000       12.0110           0
     10447 MEMB     78       POPC     H7X      HAL2     0.900000E-01   1.00800           0
     10448 MEMB     78       POPC     H7Y      HAL2     0.900000E-01   1.00800           0
     10449 MEMB     78       POPC     C38      CTL2    -0.180000       12.0110           0
     10450 MEMB     78       POPC     H8X      HAL2     0.900000E-01   1.00800           0
     10451 MEMB     78       POPC     H8Y      HAL2     0.900000E-01   1.00800           0
     10452 MEMB     78       POPC     C39      CTL2    -0.180000       12.0110           0
     10453 MEMB     78       POPC     H9X      HAL2     0.900000E-01   1.00800           0
     10454 MEMB     78       POPC     H9Y      HAL2     0.900000E-01   1.00800           0
     10455 MEMB     78       POPC     C310     CTL2    -0.180000       12.0110           0
     10456 MEMB     78       POPC     H10X     HAL2     0.900000E-01   1.00800           0
     10457 MEMB     78       POPC     H10Y     HAL2     0.900000E-01   1.00800           0
     10458 MEMB     78       POPC     C311     CTL2    -0.180000       12.0110           0
     10459 MEMB     78       POPC     H11X     HAL2     0.900000E-01   1.00800           0
     10460 MEMB     78       POPC     H11Y     HAL2     0.900000E-01   1.00800           0
     10461 MEMB     78       POPC     C312     CTL2    -0.180000       12.0110           0
     10462 MEMB     78       POPC     H12X     HAL2     0.900000E-01   1.00800           0
     10463 MEMB     78       POPC     H12Y     HAL2     0.900000E-01   1.00800           0
     10464 MEMB     78       POPC     C313     CTL2    -0.180000       12.0110           0
     10465 MEMB     78       POPC     H13X     HAL2     0.900000E-01   1.00800           0
     10466 MEMB     78       POPC     H13Y     HAL2     0.900000E-01   1.00800           0
     10467 MEMB     78       POPC     C314     CTL2    -0.180000       12.0110           0
     10468 MEMB     78       POPC     H14X     HAL2     0.900000E-01   1.00800           0
     10469 MEMB     78       POPC     H14Y     HAL2     0.900000E-01   1.00800           0
     10470 MEMB     78       POPC     C315     CTL2    -0.180000       12.0110           0
     10471 MEMB     78       POPC     H15X     HAL2     0.900000E-01   1.00800           0
     10472 MEMB     78       POPC     H15Y     HAL2     0.900000E-01   1.00800           0
     10473 MEMB     78       POPC     C316     CTL3    -0.270000       12.0110           0
     10474 MEMB     78       POPC     H16X     HAL3     0.900000E-01   1.00800           0
     10475 MEMB     78       POPC     H16Y     HAL3     0.900000E-01   1.00800           0
     10476 MEMB     78       POPC     H16Z     HAL3     0.900000E-01   1.00800           0
     10477 MEMB     79       POPC     N        NTL     -0.600000       14.0070           0
     10478 MEMB     79       POPC     C12      CTL2    -0.100000       12.0110           0
     10479 MEMB     79       POPC     H12A     HL       0.250000       1.00800           0
     10480 MEMB     79       POPC     H12B     HL       0.250000       1.00800           0
     10481 MEMB     79       POPC     C13      CTL5    -0.350000       12.0110           0
     10482 MEMB     79       POPC     H13A     HL       0.250000       1.00800           0
     10483 MEMB     79       POPC     H13B     HL       0.250000       1.00800           0
     10484 MEMB     79       POPC     H13C     HL       0.250000       1.00800           0
     10485 MEMB     79       POPC     C14      CTL5    -0.350000       12.0110           0
     10486 MEMB     79       POPC     H14A     HL       0.250000       1.00800           0
     10487 MEMB     79       POPC     H14B     HL       0.250000       1.00800           0
     10488 MEMB     79       POPC     H14C     HL       0.250000       1.00800           0
     10489 MEMB     79       POPC     C15      CTL5    -0.350000       12.0110           0
     10490 MEMB     79       POPC     H15A     HL       0.250000       1.00800           0
     10491 MEMB     79       POPC     H15B     HL       0.250000       1.00800           0
     10492 MEMB     79       POPC     H15C     HL       0.250000       1.00800           0
     10493 MEMB     79       POPC     C11      CTL2    -0.800000E-01   12.0110           0
     10494 MEMB     79       POPC     H11A     HAL2     0.900000E-01   1.00800           0
     10495 MEMB     79       POPC     H11B     HAL2     0.900000E-01   1.00800           0
     10496 MEMB     79       POPC     P        PL       1.500000       30.9740           0
     10497 MEMB     79       POPC     O13      O2L     -0.780000       15.9994           0
     10498 MEMB     79       POPC     O14      O2L     -0.780000       15.9994           0
     10499 MEMB     79       POPC     O12      OSLP    -0.570000       15.9994           0
     10500 MEMB     79       POPC     O11      OSLP    -0.570000       15.9994           0
     10501 MEMB     79       POPC     C1       CTL2    -0.800000E-01   12.0110           0
     10502 MEMB     79       POPC     HA       HAL2     0.900000E-01   1.00800           0
     10503 MEMB     79       POPC     HB       HAL2     0.900000E-01   1.00800           0
     10504 MEMB     79       POPC     C2       CTL1     0.170000       12.0110           0
     10505 MEMB     79       POPC     HS       HAL1     0.900000E-01   1.00800           0
     10506 MEMB     79       POPC     O21      OSL     -0.490000       15.9994           0
     10507 MEMB     79       POPC     C21      CL       0.900000       12.0110           0
     10508 MEMB     79       POPC     O22      OBL     -0.630000       15.9994           0
     10509 MEMB     79       POPC     C22      CTL2    -0.220000       12.0110           0
     10510 MEMB     79       POPC     H2R      HAL2     0.900000E-01   1.00800           0
     10511 MEMB     79       POPC     H2S      HAL2     0.900000E-01   1.00800           0
     10512 MEMB     79       POPC     C3       CTL2     0.800000E-01   12.0110           0
     10513 MEMB     79       POPC     HX       HAL2     0.900000E-01   1.00800           0
     10514 MEMB     79       POPC     HY       HAL2     0.900000E-01   1.00800           0
     10515 MEMB     79       POPC     O31      OSL     -0.490000       15.9994           0
     10516 MEMB     79       POPC     C31      CL       0.900000       12.0110           0
     10517 MEMB     79       POPC     O32      OBL     -0.630000       15.9994           0
     10518 MEMB     79       POPC     C32      CTL2    -0.220000       12.0110           0
     10519 MEMB     79       POPC     H2X      HAL2     0.900000E-01   1.00800           0
     10520 MEMB     79       POPC     H2Y      HAL2     0.900000E-01   1.00800           0
     10521 MEMB     79       POPC     C23      CTL2    -0.180000       12.0110           0
     10522 MEMB     79       POPC     H3R      HAL2     0.900000E-01   1.00800           0
     10523 MEMB     79       POPC     H3S      HAL2     0.900000E-01   1.00800           0
     10524 MEMB     79       POPC     C24      CTL2    -0.180000       12.0110           0
     10525 MEMB     79       POPC     H4R      HAL2     0.900000E-01   1.00800           0
     10526 MEMB     79       POPC     H4S      HAL2     0.900000E-01   1.00800           0
     10527 MEMB     79       POPC     C25      CTL2    -0.180000       12.0110           0
     10528 MEMB     79       POPC     H5R      HAL2     0.900000E-01   1.00800           0
     10529 MEMB     79       POPC     H5S      HAL2     0.900000E-01   1.00800           0
     10530 MEMB     79       POPC     C26      CTL2    -0.180000       12.0110           0
     10531 MEMB     79       POPC     H6R      HAL2     0.900000E-01   1.00800           0
     10532 MEMB     79       POPC     H6S      HAL2     0.900000E-01   1.00800           0
     10533 MEMB     79       POPC     C27      CTL2    -0.180000       12.0110           0
     10534 MEMB     79       POPC     H7R      HAL2     0.900000E-01   1.00800           0
     10535 MEMB     79       POPC     H7S      HAL2     0.900000E-01   1.00800           0
     10536 MEMB     79       POPC     C28      CTL2    -0.180000       12.0110           0
     10537 MEMB     79       POPC     H8R      HAL2     0.900000E-01   1.00800           0
     10538 MEMB     79       POPC     H8S      HAL2     0.900000E-01   1.00800           0
     10539 MEMB     79       POPC     C29      CEL1    -0.150000       12.0110           0
     10540 MEMB     79       POPC     H91      HEL1     0.150000       1.00800           0
     10541 MEMB     79       POPC     C210     CEL1    -0.150000       12.0110           0
     10542 MEMB     79       POPC     H101     HEL1     0.150000       1.00800           0
     10543 MEMB     79       POPC     C211     CTL2    -0.180000       12.0110           0
     10544 MEMB     79       POPC     H11R     HAL2     0.900000E-01   1.00800           0
     10545 MEMB     79       POPC     H11S     HAL2     0.900000E-01   1.00800           0
     10546 MEMB     79       POPC     C212     CTL2    -0.180000       12.0110           0
     10547 MEMB     79       POPC     H12R     HAL2     0.900000E-01   1.00800           0
     10548 MEMB     79       POPC     H12S     HAL2     0.900000E-01   1.00800           0
     10549 MEMB     79       POPC     C213     CTL2    -0.180000       12.0110           0
     10550 MEMB     79       POPC     H13R     HAL2     0.900000E-01   1.00800           0
     10551 MEMB     79       POPC     H13S     HAL2     0.900000E-01   1.00800           0
     10552 MEMB     79       POPC     C214     CTL2    -0.180000       12.0110           0
     10553 MEMB     79       POPC     H14R     HAL2     0.900000E-01   1.00800           0
     10554 MEMB     79       POPC     H14S     HAL2     0.900000E-01   1.00800           0
     10555 MEMB     79       POPC     C215     CTL2    -0.180000       12.0110           0
     10556 MEMB     79       POPC     H15R     HAL2     0.900000E-01   1.00800           0
     10557 MEMB     79       POPC     H15S     HAL2     0.900000E-01   1.00800           0
     10558 MEMB     79       POPC     C216     CTL2    -0.180000       12.0110           0
     10559 MEMB     79       POPC     H16R     HAL2     0.900000E-01   1.00800           0
     10560 MEMB     79       POPC     H16S     HAL2     0.900000E-01   1.00800           0
     10561 MEMB     79       POPC     C217     CTL2    -0.180000       12.0110           0
     10562 MEMB     79       POPC     H17R     HAL2     0.900000E-01   1.00800           0
     10563 MEMB     79       POPC     H17S     HAL2     0.900000E-01   1.00800           0
     10564 MEMB     79       POPC     C218     CTL3    -0.270000       12.0110           0
     10565 MEMB     79       POPC     H18R     HAL3     0.900000E-01   1.00800           0
     10566 MEMB     79       POPC     H18S     HAL3     0.900000E-01   1.00800           0
     10567 MEMB     79       POPC     H18T     HAL3     0.900000E-01   1.00800           0
     10568 MEMB     79       POPC     C33      CTL2    -0.180000       12.0110           0
     10569 MEMB     79       POPC     H3X      HAL2     0.900000E-01   1.00800           0
     10570 MEMB     79       POPC     H3Y      HAL2     0.900000E-01   1.00800           0
     10571 MEMB     79       POPC     C34      CTL2    -0.180000       12.0110           0
     10572 MEMB     79       POPC     H4X      HAL2     0.900000E-01   1.00800           0
     10573 MEMB     79       POPC     H4Y      HAL2     0.900000E-01   1.00800           0
     10574 MEMB     79       POPC     C35      CTL2    -0.180000       12.0110           0
     10575 MEMB     79       POPC     H5X      HAL2     0.900000E-01   1.00800           0
     10576 MEMB     79       POPC     H5Y      HAL2     0.900000E-01   1.00800           0
     10577 MEMB     79       POPC     C36      CTL2    -0.180000       12.0110           0
     10578 MEMB     79       POPC     H6X      HAL2     0.900000E-01   1.00800           0
     10579 MEMB     79       POPC     H6Y      HAL2     0.900000E-01   1.00800           0
     10580 MEMB     79       POPC     C37      CTL2    -0.180000       12.0110           0
     10581 MEMB     79       POPC     H7X      HAL2     0.900000E-01   1.00800           0
     10582 MEMB     79       POPC     H7Y      HAL2     0.900000E-01   1.00800           0
     10583 MEMB     79       POPC     C38      CTL2    -0.180000       12.0110           0
     10584 MEMB     79       POPC     H8X      HAL2     0.900000E-01   1.00800           0
     10585 MEMB     79       POPC     H8Y      HAL2     0.900000E-01   1.00800           0
     10586 MEMB     79       POPC     C39      CTL2    -0.180000       12.0110           0
     10587 MEMB     79       POPC     H9X      HAL2     0.900000E-01   1.00800           0
     10588 MEMB     79       POPC     H9Y      HAL2     0.900000E-01   1.00800           0
     10589 MEMB     79       POPC     C310     CTL2    -0.180000       12.0110           0
     10590 MEMB     79       POPC     H10X     HAL2     0.900000E-01   1.00800           0
     10591 MEMB     79       POPC     H10Y     HAL2     0.900000E-01   1.00800           0
     10592 MEMB     79       POPC     C311     CTL2    -0.180000       12.0110           0
     10593 MEMB     79       POPC     H11X     HAL2     0.900000E-01   1.00800           0
     10594 MEMB     79       POPC     H11Y     HAL2     0.900000E-01   1.00800           0
     10595 MEMB     79       POPC     C312     CTL2    -0.180000       12.0110           0
     10596 MEMB     79       POPC     H12X     HAL2     0.900000E-01   1.00800           0
     10597 MEMB     79       POPC     H12Y     HAL2     0.900000E-01   1.00800           0
     10598 MEMB     79       POPC     C313     CTL2    -0.180000       12.0110           0
     10599 MEMB     79       POPC     H13X     HAL2     0.900000E-01   1.00800           0
     10600 MEMB     79       POPC     H13Y     HAL2     0.900000E-01   1.00800           0
     10601 MEMB     79       POPC     C314     CTL2    -0.180000       12.0110           0
     10602 MEMB     79       POPC     H14X     HAL2     0.900000E-01   1.00800           0
     10603 MEMB     79       POPC     H14Y     HAL2     0.900000E-01   1.00800           0
     10604 MEMB     79       POPC     C315     CTL2    -0.180000       12.0110           0
     10605 MEMB     79       POPC     H15X     HAL2     0.900000E-01   1.00800           0
     10606 MEMB     79       POPC     H15Y     HAL2     0.900000E-01   1.00800           0
     10607 MEMB     79       POPC     C316     CTL3    -0.270000       12.0110           0
     10608 MEMB     79       POPC     H16X     HAL3     0.900000E-01   1.00800           0
     10609 MEMB     79       POPC     H16Y     HAL3     0.900000E-01   1.00800           0
     10610 MEMB     79       POPC     H16Z     HAL3     0.900000E-01   1.00800           0
     10611 MEMB     80       POPC     N        NTL     -0.600000       14.0070           0
     10612 MEMB     80       POPC     C12      CTL2    -0.100000       12.0110           0
     10613 MEMB     80       POPC     H12A     HL       0.250000       1.00800           0
     10614 MEMB     80       POPC     H12B     HL       0.250000       1.00800           0
     10615 MEMB     80       POPC     C13      CTL5    -0.350000       12.0110           0
     10616 MEMB     80       POPC     H13A     HL       0.250000       1.00800           0
     10617 MEMB     80       POPC     H13B     HL       0.250000       1.00800           0
     10618 MEMB     80       POPC     H13C     HL       0.250000       1.00800           0
     10619 MEMB     80       POPC     C14      CTL5    -0.350000       12.0110           0
     10620 MEMB     80       POPC     H14A     HL       0.250000       1.00800           0
     10621 MEMB     80       POPC     H14B     HL       0.250000       1.00800           0
     10622 MEMB     80       POPC     H14C     HL       0.250000       1.00800           0
     10623 MEMB     80       POPC     C15      CTL5    -0.350000       12.0110           0
     10624 MEMB     80       POPC     H15A     HL       0.250000       1.00800           0
     10625 MEMB     80       POPC     H15B     HL       0.250000       1.00800           0
     10626 MEMB     80       POPC     H15C     HL       0.250000       1.00800           0
     10627 MEMB     80       POPC     C11      CTL2    -0.800000E-01   12.0110           0
     10628 MEMB     80       POPC     H11A     HAL2     0.900000E-01   1.00800           0
     10629 MEMB     80       POPC     H11B     HAL2     0.900000E-01   1.00800           0
     10630 MEMB     80       POPC     P        PL       1.500000       30.9740           0
     10631 MEMB     80       POPC     O13      O2L     -0.780000       15.9994           0
     10632 MEMB     80       POPC     O14      O2L     -0.780000       15.9994           0
     10633 MEMB     80       POPC     O12      OSLP    -0.570000       15.9994           0
     10634 MEMB     80       POPC     O11      OSLP    -0.570000       15.9994           0
     10635 MEMB     80       POPC     C1       CTL2    -0.800000E-01   12.0110           0
     10636 MEMB     80       POPC     HA       HAL2     0.900000E-01   1.00800           0
     10637 MEMB     80       POPC     HB       HAL2     0.900000E-01   1.00800           0
     10638 MEMB     80       POPC     C2       CTL1     0.170000       12.0110           0
     10639 MEMB     80       POPC     HS       HAL1     0.900000E-01   1.00800           0
     10640 MEMB     80       POPC     O21      OSL     -0.490000       15.9994           0
     10641 MEMB     80       POPC     C21      CL       0.900000       12.0110           0
     10642 MEMB     80       POPC     O22      OBL     -0.630000       15.9994           0
     10643 MEMB     80       POPC     C22      CTL2    -0.220000       12.0110           0
     10644 MEMB     80       POPC     H2R      HAL2     0.900000E-01   1.00800           0
     10645 MEMB     80       POPC     H2S      HAL2     0.900000E-01   1.00800           0
     10646 MEMB     80       POPC     C3       CTL2     0.800000E-01   12.0110           0
     10647 MEMB     80       POPC     HX       HAL2     0.900000E-01   1.00800           0
     10648 MEMB     80       POPC     HY       HAL2     0.900000E-01   1.00800           0
     10649 MEMB     80       POPC     O31      OSL     -0.490000       15.9994           0
     10650 MEMB     80       POPC     C31      CL       0.900000       12.0110           0
     10651 MEMB     80       POPC     O32      OBL     -0.630000       15.9994           0
     10652 MEMB     80       POPC     C32      CTL2    -0.220000       12.0110           0
     10653 MEMB     80       POPC     H2X      HAL2     0.900000E-01   1.00800           0
     10654 MEMB     80       POPC     H2Y      HAL2     0.900000E-01   1.00800           0
     10655 MEMB     80       POPC     C23      CTL2    -0.180000       12.0110           0
     10656 MEMB     80       POPC     H3R      HAL2     0.900000E-01   1.00800           0
     10657 MEMB     80       POPC     H3S      HAL2     0.900000E-01   1.00800           0
     10658 MEMB     80       POPC     C24      CTL2    -0.180000       12.0110           0
     10659 MEMB     80       POPC     H4R      HAL2     0.900000E-01   1.00800           0
     10660 MEMB     80       POPC     H4S      HAL2     0.900000E-01   1.00800           0
     10661 MEMB     80       POPC     C25      CTL2    -0.180000       12.0110           0
     10662 MEMB     80       POPC     H5R      HAL2     0.900000E-01   1.00800           0
     10663 MEMB     80       POPC     H5S      HAL2     0.900000E-01   1.00800           0
     10664 MEMB     80       POPC     C26      CTL2    -0.180000       12.0110           0
     10665 MEMB     80       POPC     H6R      HAL2     0.900000E-01   1.00800           0
     10666 MEMB     80       POPC     H6S      HAL2     0.900000E-01   1.00800           0
     10667 MEMB     80       POPC     C27      CTL2    -0.180000       12.0110           0
     10668 MEMB     80       POPC     H7R      HAL2     0.900000E-01   1.00800           0
     10669 MEMB     80       POPC     H7S      HAL2     0.900000E-01   1.00800           0
     10670 MEMB     80       POPC     C28      CTL2    -0.180000       12.0110           0
     10671 MEMB     80       POPC     H8R      HAL2     0.900000E-01   1.00800           0
     10672 MEMB     80       POPC     H8S      HAL2     0.900000E-01   1.00800           0
     10673 MEMB     80       POPC     C29      CEL1    -0.150000       12.0110           0
     10674 MEMB     80       POPC     H91      HEL1     0.150000       1.00800           0
     10675 MEMB     80       POPC     C210     CEL1    -0.150000       12.0110           0
     10676 MEMB     80       POPC     H101     HEL1     0.150000       1.00800           0
     10677 MEMB     80       POPC     C211     CTL2    -0.180000       12.0110           0
     10678 MEMB     80       POPC     H11R     HAL2     0.900000E-01   1.00800           0
     10679 MEMB     80       POPC     H11S     HAL2     0.900000E-01   1.00800           0
     10680 MEMB     80       POPC     C212     CTL2    -0.180000       12.0110           0
     10681 MEMB     80       POPC     H12R     HAL2     0.900000E-01   1.00800           0
     10682 MEMB     80       POPC     H12S     HAL2     0.900000E-01   1.00800           0
     10683 MEMB     80       POPC     C213     CTL2    -0.180000       12.0110           0
     10684 MEMB     80       POPC     H13R     HAL2     0.900000E-01   1.00800           0
     10685 MEMB     80       POPC     H13S     HAL2     0.900000E-01   1.00800           0
     10686 MEMB     80       POPC     C214     CTL2    -0.180000       12.0110           0
     10687 MEMB     80       POPC     H14R     HAL2     0.900000E-01   1.00800           0
     10688 MEMB     80       POPC     H14S     HAL2     0.900000E-01   1.00800           0
     10689 MEMB     80       POPC     C215     CTL2    -0.180000       12.0110           0
     10690 MEMB     80       POPC     H15R     HAL2     0.900000E-01   1.00800           0
     10691 MEMB     80       POPC     H15S     HAL2     0.900000E-01   1.00800           0
     10692 MEMB     80       POPC     C216     CTL2    -0.180000       12.0110           0
     10693 MEMB     80       POPC     H16R     HAL2     0.900000E-01   1.00800           0
     10694 MEMB     80       POPC     H16S     HAL2     0.900000E-01   1.00800           0
     10695 MEMB     80       POPC     C217     CTL2    -0.180000       12.0110           0
     10696 MEMB     80       POPC     H17R     HAL2     0.900000E-01   1.00800           0
     10697 MEMB     80       POPC     H17S     HAL2     0.900000E-01   1.00800           0
     10698 MEMB     80       POPC     C218     CTL3    -0.270000       12.0110           0
     10699 MEMB     80       POPC     H18R     HAL3     0.900000E-01   1.00800           0
     10700 MEMB     80       POPC     H18S     HAL3     0.900000E-01   1.00800           0
     10701 MEMB     80       POPC     H18T     HAL3     0.900000E-01   1.00800           0
     10702 MEMB     80       POPC     C33      CTL2    -0.180000       12.0110           0
     10703 MEMB     80       POPC     H3X      HAL2     0.900000E-01   1.00800           0
     10704 MEMB     80       POPC     H3Y      HAL2     0.900000E-01   1.00800           0
     10705 MEMB     80       POPC     C34      CTL2    -0.180000       12.0110           0
     10706 MEMB     80       POPC     H4X      HAL2     0.900000E-01   1.00800           0
     10707 MEMB     80       POPC     H4Y      HAL2     0.900000E-01   1.00800           0
     10708 MEMB     80       POPC     C35      CTL2    -0.180000       12.0110           0
     10709 MEMB     80       POPC     H5X      HAL2     0.900000E-01   1.00800           0
     10710 MEMB     80       POPC     H5Y      HAL2     0.900000E-01   1.00800           0
     10711 MEMB     80       POPC     C36      CTL2    -0.180000       12.0110           0
     10712 MEMB     80       POPC     H6X      HAL2     0.900000E-01   1.00800           0
     10713 MEMB     80       POPC     H6Y      HAL2     0.900000E-01   1.00800           0
     10714 MEMB     80       POPC     C37      CTL2    -0.180000       12.0110           0
     10715 MEMB     80       POPC     H7X      HAL2     0.900000E-01   1.00800           0
     10716 MEMB     80       POPC     H7Y      HAL2     0.900000E-01   1.00800           0
     10717 MEMB     80       POPC     C38      CTL2    -0.180000       12.0110           0
     10718 MEMB     80       POPC     H8X      HAL2     0.900000E-01   1.00800           0
     10719 MEMB     80       POPC     H8Y      HAL2     0.900000E-01   1.00800           0
     10720 MEMB     80       POPC     C39      CTL2    -0.180000       12.0110           0
     10721 MEMB     80       POPC     H9X      HAL2     0.900000E-01   1.00800           0
     10722 MEMB     80       POPC     H9Y      HAL2     0.900000E-01   1.00800           0
     10723 MEMB     80       POPC     C310     CTL2    -0.180000       12.0110           0
     10724 MEMB     80       POPC     H10X     HAL2     0.900000E-01   1.00800           0
     10725 MEMB     80       POPC     H10Y     HAL2     0.900000E-01   1.00800           0
     10726 MEMB     80       POPC     C311     CTL2    -0.180000       12.0110           0
     10727 MEMB     80       POPC     H11X     HAL2     0.900000E-01   1.00800           0
     10728 MEMB     80       POPC     H11Y     HAL2     0.900000E-01   1.00800           0
     10729 MEMB     80       POPC     C312     CTL2    -0.180000       12.0110           0
     10730 MEMB     80       POPC     H12X     HAL2     0.900000E-01   1.00800           0
     10731 MEMB     80       POPC     H12Y     HAL2     0.900000E-01   1.00800           0
     10732 MEMB     80       POPC     C313     CTL2    -0.180000       12.0110           0
     10733 MEMB     80       POPC     H13X     HAL2     0.900000E-01   1.00800           0
     10734 MEMB     80       POPC     H13Y     HAL2     0.900000E-01   1.00800           0
     10735 MEMB     80       POPC     C314     CTL2    -0.180000       12.0110           0
     10736 MEMB     80       POPC     H14X     HAL2     0.900000E-01   1.00800           0
     10737 MEMB     80       POPC     H14Y     HAL2     0.900000E-01   1.00800           0
     10738 MEMB     80       POPC     C315     CTL2    -0.180000       12.0110           0
     10739 MEMB     80       POPC     H15X     HAL2     0.900000E-01   1.00800           0
     10740 MEMB     80       POPC     H15Y     HAL2     0.900000E-01   1.00800           0
     10741 MEMB     80       POPC     C316     CTL3    -0.270000       12.0110           0
     10742 MEMB     80       POPC     H16X     HAL3     0.900000E-01   1.00800           0
     10743 MEMB     80       POPC     H16Y     HAL3     0.900000E-01   1.00800           0
     10744 MEMB     80       POPC     H16Z     HAL3     0.900000E-01   1.00800           0
     10745 MEMB     81       POPC     N        NTL     -0.600000       14.0070           0
     10746 MEMB     81       POPC     C12      CTL2    -0.100000       12.0110           0
     10747 MEMB     81       POPC     H12A     HL       0.250000       1.00800           0
     10748 MEMB     81       POPC     H12B     HL       0.250000       1.00800           0
     10749 MEMB     81       POPC     C13      CTL5    -0.350000       12.0110           0
     10750 MEMB     81       POPC     H13A     HL       0.250000       1.00800           0
     10751 MEMB     81       POPC     H13B     HL       0.250000       1.00800           0
     10752 MEMB     81       POPC     H13C     HL       0.250000       1.00800           0
     10753 MEMB     81       POPC     C14      CTL5    -0.350000       12.0110           0
     10754 MEMB     81       POPC     H14A     HL       0.250000       1.00800           0
     10755 MEMB     81       POPC     H14B     HL       0.250000       1.00800           0
     10756 MEMB     81       POPC     H14C     HL       0.250000       1.00800           0
     10757 MEMB     81       POPC     C15      CTL5    -0.350000       12.0110           0
     10758 MEMB     81       POPC     H15A     HL       0.250000       1.00800           0
     10759 MEMB     81       POPC     H15B     HL       0.250000       1.00800           0
     10760 MEMB     81       POPC     H15C     HL       0.250000       1.00800           0
     10761 MEMB     81       POPC     C11      CTL2    -0.800000E-01   12.0110           0
     10762 MEMB     81       POPC     H11A     HAL2     0.900000E-01   1.00800           0
     10763 MEMB     81       POPC     H11B     HAL2     0.900000E-01   1.00800           0
     10764 MEMB     81       POPC     P        PL       1.500000       30.9740           0
     10765 MEMB     81       POPC     O13      O2L     -0.780000       15.9994           0
     10766 MEMB     81       POPC     O14      O2L     -0.780000       15.9994           0
     10767 MEMB     81       POPC     O12      OSLP    -0.570000       15.9994           0
     10768 MEMB     81       POPC     O11      OSLP    -0.570000       15.9994           0
     10769 MEMB     81       POPC     C1       CTL2    -0.800000E-01   12.0110           0
     10770 MEMB     81       POPC     HA       HAL2     0.900000E-01   1.00800           0
     10771 MEMB     81       POPC     HB       HAL2     0.900000E-01   1.00800           0
     10772 MEMB     81       POPC     C2       CTL1     0.170000       12.0110           0
     10773 MEMB     81       POPC     HS       HAL1     0.900000E-01   1.00800           0
     10774 MEMB     81       POPC     O21      OSL     -0.490000       15.9994           0
     10775 MEMB     81       POPC     C21      CL       0.900000       12.0110           0
     10776 MEMB     81       POPC     O22      OBL     -0.630000       15.9994           0
     10777 MEMB     81       POPC     C22      CTL2    -0.220000       12.0110           0
     10778 MEMB     81       POPC     H2R      HAL2     0.900000E-01   1.00800           0
     10779 MEMB     81       POPC     H2S      HAL2     0.900000E-01   1.00800           0
     10780 MEMB     81       POPC     C3       CTL2     0.800000E-01   12.0110           0
     10781 MEMB     81       POPC     HX       HAL2     0.900000E-01   1.00800           0
     10782 MEMB     81       POPC     HY       HAL2     0.900000E-01   1.00800           0
     10783 MEMB     81       POPC     O31      OSL     -0.490000       15.9994           0
     10784 MEMB     81       POPC     C31      CL       0.900000       12.0110           0
     10785 MEMB     81       POPC     O32      OBL     -0.630000       15.9994           0
     10786 MEMB     81       POPC     C32      CTL2    -0.220000       12.0110           0
     10787 MEMB     81       POPC     H2X      HAL2     0.900000E-01   1.00800           0
     10788 MEMB     81       POPC     H2Y      HAL2     0.900000E-01   1.00800           0
     10789 MEMB     81       POPC     C23      CTL2    -0.180000       12.0110           0
     10790 MEMB     81       POPC     H3R      HAL2     0.900000E-01   1.00800           0
     10791 MEMB     81       POPC     H3S      HAL2     0.900000E-01   1.00800           0
     10792 MEMB     81       POPC     C24      CTL2    -0.180000       12.0110           0
     10793 MEMB     81       POPC     H4R      HAL2     0.900000E-01   1.00800           0
     10794 MEMB     81       POPC     H4S      HAL2     0.900000E-01   1.00800           0
     10795 MEMB     81       POPC     C25      CTL2    -0.180000       12.0110           0
     10796 MEMB     81       POPC     H5R      HAL2     0.900000E-01   1.00800           0
     10797 MEMB     81       POPC     H5S      HAL2     0.900000E-01   1.00800           0
     10798 MEMB     81       POPC     C26      CTL2    -0.180000       12.0110           0
     10799 MEMB     81       POPC     H6R      HAL2     0.900000E-01   1.00800           0
     10800 MEMB     81       POPC     H6S      HAL2     0.900000E-01   1.00800           0
     10801 MEMB     81       POPC     C27      CTL2    -0.180000       12.0110           0
     10802 MEMB     81       POPC     H7R      HAL2     0.900000E-01   1.00800           0
     10803 MEMB     81       POPC     H7S      HAL2     0.900000E-01   1.00800           0
     10804 MEMB     81       POPC     C28      CTL2    -0.180000       12.0110           0
     10805 MEMB     81       POPC     H8R      HAL2     0.900000E-01   1.00800           0
     10806 MEMB     81       POPC     H8S      HAL2     0.900000E-01   1.00800           0
     10807 MEMB     81       POPC     C29      CEL1    -0.150000       12.0110           0
     10808 MEMB     81       POPC     H91      HEL1     0.150000       1.00800           0
     10809 MEMB     81       POPC     C210     CEL1    -0.150000       12.0110           0
     10810 MEMB     81       POPC     H101     HEL1     0.150000       1.00800           0
     10811 MEMB     81       POPC     C211     CTL2    -0.180000       12.0110           0
     10812 MEMB     81       POPC     H11R     HAL2     0.900000E-01   1.00800           0
     10813 MEMB     81       POPC     H11S     HAL2     0.900000E-01   1.00800           0
     10814 MEMB     81       POPC     C212     CTL2    -0.180000       12.0110           0
     10815 MEMB     81       POPC     H12R     HAL2     0.900000E-01   1.00800           0
     10816 MEMB     81       POPC     H12S     HAL2     0.900000E-01   1.00800           0
     10817 MEMB     81       POPC     C213     CTL2    -0.180000       12.0110           0
     10818 MEMB     81       POPC     H13R     HAL2     0.900000E-01   1.00800           0
     10819 MEMB     81       POPC     H13S     HAL2     0.900000E-01   1.00800           0
     10820 MEMB     81       POPC     C214     CTL2    -0.180000       12.0110           0
     10821 MEMB     81       POPC     H14R     HAL2     0.900000E-01   1.00800           0
     10822 MEMB     81       POPC     H14S     HAL2     0.900000E-01   1.00800           0
     10823 MEMB     81       POPC     C215     CTL2    -0.180000       12.0110           0
     10824 MEMB     81       POPC     H15R     HAL2     0.900000E-01   1.00800           0
     10825 MEMB     81       POPC     H15S     HAL2     0.900000E-01   1.00800           0
     10826 MEMB     81       POPC     C216     CTL2    -0.180000       12.0110           0
     10827 MEMB     81       POPC     H16R     HAL2     0.900000E-01   1.00800           0
     10828 MEMB     81       POPC     H16S     HAL2     0.900000E-01   1.00800           0
     10829 MEMB     81       POPC     C217     CTL2    -0.180000       12.0110           0
     10830 MEMB     81       POPC     H17R     HAL2     0.900000E-01   1.00800           0
     10831 MEMB     81       POPC     H17S     HAL2     0.900000E-01   1.00800           0
     10832 MEMB     81       POPC     C218     CTL3    -0.270000       12.0110           0
     10833 MEMB     81       POPC     H18R     HAL3     0.900000E-01   1.00800           0
     10834 MEMB     81       POPC     H18S     HAL3     0.900000E-01   1.00800           0
     10835 MEMB     81       POPC     H18T     HAL3     0.900000E-01   1.00800           0
     10836 MEMB     81       POPC     C33      CTL2    -0.180000       12.0110           0
     10837 MEMB     81       POPC     H3X      HAL2     0.900000E-01   1.00800           0
     10838 MEMB     81       POPC     H3Y      HAL2     0.900000E-01   1.00800           0
     10839 MEMB     81       POPC     C34      CTL2    -0.180000       12.0110           0
     10840 MEMB     81       POPC     H4X      HAL2     0.900000E-01   1.00800           0
     10841 MEMB     81       POPC     H4Y      HAL2     0.900000E-01   1.00800           0
     10842 MEMB     81       POPC     C35      CTL2    -0.180000       12.0110           0
     10843 MEMB     81       POPC     H5X      HAL2     0.900000E-01   1.00800           0
     10844 MEMB     81       POPC     H5Y      HAL2     0.900000E-01   1.00800           0
     10845 MEMB     81       POPC     C36      CTL2    -0.180000       12.0110           0
     10846 MEMB     81       POPC     H6X      HAL2     0.900000E-01   1.00800           0
     10847 MEMB     81       POPC     H6Y      HAL2     0.900000E-01   1.00800           0
     10848 MEMB     81       POPC     C37      CTL2    -0.180000       12.0110           0
     10849 MEMB     81       POPC     H7X      HAL2     0.900000E-01   1.00800           0
     10850 MEMB     81       POPC     H7Y      HAL2     0.900000E-01   1.00800           0
     10851 MEMB     81       POPC     C38      CTL2    -0.180000       12.0110           0
     10852 MEMB     81       POPC     H8X      HAL2     0.900000E-01   1.00800           0
     10853 MEMB     81       POPC     H8Y      HAL2     0.900000E-01   1.00800           0
     10854 MEMB     81       POPC     C39      CTL2    -0.180000       12.0110           0
     10855 MEMB     81       POPC     H9X      HAL2     0.900000E-01   1.00800           0
     10856 MEMB     81       POPC     H9Y      HAL2     0.900000E-01   1.00800           0
     10857 MEMB     81       POPC     C310     CTL2    -0.180000       12.0110           0
     10858 MEMB     81       POPC     H10X     HAL2     0.900000E-01   1.00800           0
     10859 MEMB     81       POPC     H10Y     HAL2     0.900000E-01   1.00800           0
     10860 MEMB     81       POPC     C311     CTL2    -0.180000       12.0110           0
     10861 MEMB     81       POPC     H11X     HAL2     0.900000E-01   1.00800           0
     10862 MEMB     81       POPC     H11Y     HAL2     0.900000E-01   1.00800           0
     10863 MEMB     81       POPC     C312     CTL2    -0.180000       12.0110           0
     10864 MEMB     81       POPC     H12X     HAL2     0.900000E-01   1.00800           0
     10865 MEMB     81       POPC     H12Y     HAL2     0.900000E-01   1.00800           0
     10866 MEMB     81       POPC     C313     CTL2    -0.180000       12.0110           0
     10867 MEMB     81       POPC     H13X     HAL2     0.900000E-01   1.00800           0
     10868 MEMB     81       POPC     H13Y     HAL2     0.900000E-01   1.00800           0
     10869 MEMB     81       POPC     C314     CTL2    -0.180000       12.0110           0
     10870 MEMB     81       POPC     H14X     HAL2     0.900000E-01   1.00800           0
     10871 MEMB     81       POPC     H14Y     HAL2     0.900000E-01   1.00800           0
     10872 MEMB     81       POPC     C315     CTL2    -0.180000       12.0110           0
     10873 MEMB     81       POPC     H15X     HAL2     0.900000E-01   1.00800           0
     10874 MEMB     81       POPC     H15Y     HAL2     0.900000E-01   1.00800           0
     10875 MEMB     81       POPC     C316     CTL3    -0.270000       12.0110           0
     10876 MEMB     81       POPC     H16X     HAL3     0.900000E-01   1.00800           0
     10877 MEMB     81       POPC     H16Y     HAL3     0.900000E-01   1.00800           0
     10878 MEMB     81       POPC     H16Z     HAL3     0.900000E-01   1.00800           0
     10879 MEMB     82       POPC     N        NTL     -0.600000       14.0070           0
     10880 MEMB     82       POPC     C12      CTL2    -0.100000       12.0110           0
     10881 MEMB     82       POPC     H12A     HL       0.250000       1.00800           0
     10882 MEMB     82       POPC     H12B     HL       0.250000       1.00800           0
     10883 MEMB     82       POPC     C13      CTL5    -0.350000       12.0110           0
     10884 MEMB     82       POPC     H13A     HL       0.250000       1.00800           0
     10885 MEMB     82       POPC     H13B     HL       0.250000       1.00800           0
     10886 MEMB     82       POPC     H13C     HL       0.250000       1.00800           0
     10887 MEMB     82       POPC     C14      CTL5    -0.350000       12.0110           0
     10888 MEMB     82       POPC     H14A     HL       0.250000       1.00800           0
     10889 MEMB     82       POPC     H14B     HL       0.250000       1.00800           0
     10890 MEMB     82       POPC     H14C     HL       0.250000       1.00800           0
     10891 MEMB     82       POPC     C15      CTL5    -0.350000       12.0110           0
     10892 MEMB     82       POPC     H15A     HL       0.250000       1.00800           0
     10893 MEMB     82       POPC     H15B     HL       0.250000       1.00800           0
     10894 MEMB     82       POPC     H15C     HL       0.250000       1.00800           0
     10895 MEMB     82       POPC     C11      CTL2    -0.800000E-01   12.0110           0
     10896 MEMB     82       POPC     H11A     HAL2     0.900000E-01   1.00800           0
     10897 MEMB     82       POPC     H11B     HAL2     0.900000E-01   1.00800           0
     10898 MEMB     82       POPC     P        PL       1.500000       30.9740           0
     10899 MEMB     82       POPC     O13      O2L     -0.780000       15.9994           0
     10900 MEMB     82       POPC     O14      O2L     -0.780000       15.9994           0
     10901 MEMB     82       POPC     O12      OSLP    -0.570000       15.9994           0
     10902 MEMB     82       POPC     O11      OSLP    -0.570000       15.9994           0
     10903 MEMB     82       POPC     C1       CTL2    -0.800000E-01   12.0110           0
     10904 MEMB     82       POPC     HA       HAL2     0.900000E-01   1.00800           0
     10905 MEMB     82       POPC     HB       HAL2     0.900000E-01   1.00800           0
     10906 MEMB     82       POPC     C2       CTL1     0.170000       12.0110           0
     10907 MEMB     82       POPC     HS       HAL1     0.900000E-01   1.00800           0
     10908 MEMB     82       POPC     O21      OSL     -0.490000       15.9994           0
     10909 MEMB     82       POPC     C21      CL       0.900000       12.0110           0
     10910 MEMB     82       POPC     O22      OBL     -0.630000       15.9994           0
     10911 MEMB     82       POPC     C22      CTL2    -0.220000       12.0110           0
     10912 MEMB     82       POPC     H2R      HAL2     0.900000E-01   1.00800           0
     10913 MEMB     82       POPC     H2S      HAL2     0.900000E-01   1.00800           0
     10914 MEMB     82       POPC     C3       CTL2     0.800000E-01   12.0110           0
     10915 MEMB     82       POPC     HX       HAL2     0.900000E-01   1.00800           0
     10916 MEMB     82       POPC     HY       HAL2     0.900000E-01   1.00800           0
     10917 MEMB     82       POPC     O31      OSL     -0.490000       15.9994           0
     10918 MEMB     82       POPC     C31      CL       0.900000       12.0110           0
     10919 MEMB     82       POPC     O32      OBL     -0.630000       15.9994           0
     10920 MEMB     82       POPC     C32      CTL2    -0.220000       12.0110           0
     10921 MEMB     82       POPC     H2X      HAL2     0.900000E-01   1.00800           0
     10922 MEMB     82       POPC     H2Y      HAL2     0.900000E-01   1.00800           0
     10923 MEMB     82       POPC     C23      CTL2    -0.180000       12.0110           0
     10924 MEMB     82       POPC     H3R      HAL2     0.900000E-01   1.00800           0
     10925 MEMB     82       POPC     H3S      HAL2     0.900000E-01   1.00800           0
     10926 MEMB     82       POPC     C24      CTL2    -0.180000       12.0110           0
     10927 MEMB     82       POPC     H4R      HAL2     0.900000E-01   1.00800           0
     10928 MEMB     82       POPC     H4S      HAL2     0.900000E-01   1.00800           0
     10929 MEMB     82       POPC     C25      CTL2    -0.180000       12.0110           0
     10930 MEMB     82       POPC     H5R      HAL2     0.900000E-01   1.00800           0
     10931 MEMB     82       POPC     H5S      HAL2     0.900000E-01   1.00800           0
     10932 MEMB     82       POPC     C26      CTL2    -0.180000       12.0110           0
     10933 MEMB     82       POPC     H6R      HAL2     0.900000E-01   1.00800           0
     10934 MEMB     82       POPC     H6S      HAL2     0.900000E-01   1.00800           0
     10935 MEMB     82       POPC     C27      CTL2    -0.180000       12.0110           0
     10936 MEMB     82       POPC     H7R      HAL2     0.900000E-01   1.00800           0
     10937 MEMB     82       POPC     H7S      HAL2     0.900000E-01   1.00800           0
     10938 MEMB     82       POPC     C28      CTL2    -0.180000       12.0110           0
     10939 MEMB     82       POPC     H8R      HAL2     0.900000E-01   1.00800           0
     10940 MEMB     82       POPC     H8S      HAL2     0.900000E-01   1.00800           0
     10941 MEMB     82       POPC     C29      CEL1    -0.150000       12.0110           0
     10942 MEMB     82       POPC     H91      HEL1     0.150000       1.00800           0
     10943 MEMB     82       POPC     C210     CEL1    -0.150000       12.0110           0
     10944 MEMB     82       POPC     H101     HEL1     0.150000       1.00800           0
     10945 MEMB     82       POPC     C211     CTL2    -0.180000       12.0110           0
     10946 MEMB     82       POPC     H11R     HAL2     0.900000E-01   1.00800           0
     10947 MEMB     82       POPC     H11S     HAL2     0.900000E-01   1.00800           0
     10948 MEMB     82       POPC     C212     CTL2    -0.180000       12.0110           0
     10949 MEMB     82       POPC     H12R     HAL2     0.900000E-01   1.00800           0
     10950 MEMB     82       POPC     H12S     HAL2     0.900000E-01   1.00800           0
     10951 MEMB     82       POPC     C213     CTL2    -0.180000       12.0110           0
     10952 MEMB     82       POPC     H13R     HAL2     0.900000E-01   1.00800           0
     10953 MEMB     82       POPC     H13S     HAL2     0.900000E-01   1.00800           0
     10954 MEMB     82       POPC     C214     CTL2    -0.180000       12.0110           0
     10955 MEMB     82       POPC     H14R     HAL2     0.900000E-01   1.00800           0
     10956 MEMB     82       POPC     H14S     HAL2     0.900000E-01   1.00800           0
     10957 MEMB     82       POPC     C215     CTL2    -0.180000       12.0110           0
     10958 MEMB     82       POPC     H15R     HAL2     0.900000E-01   1.00800           0
     10959 MEMB     82       POPC     H15S     HAL2     0.900000E-01   1.00800           0
     10960 MEMB     82       POPC     C216     CTL2    -0.180000       12.0110           0
     10961 MEMB     82       POPC     H16R     HAL2     0.900000E-01   1.00800           0
     10962 MEMB     82       POPC     H16S     HAL2     0.900000E-01   1.00800           0
     10963 MEMB     82       POPC     C217     CTL2    -0.180000       12.0110           0
     10964 MEMB     82       POPC     H17R     HAL2     0.900000E-01   1.00800           0
     10965 MEMB     82       POPC     H17S     HAL2     0.900000E-01   1.00800           0
     10966 MEMB     82       POPC     C218     CTL3    -0.270000       12.0110           0
     10967 MEMB     82       POPC     H18R     HAL3     0.900000E-01   1.00800           0
     10968 MEMB     82       POPC     H18S     HAL3     0.900000E-01   1.00800           0
     10969 MEMB     82       POPC     H18T     HAL3     0.900000E-01   1.00800           0
     10970 MEMB     82       POPC     C33      CTL2    -0.180000       12.0110           0
     10971 MEMB     82       POPC     H3X      HAL2     0.900000E-01   1.00800           0
     10972 MEMB     82       POPC     H3Y      HAL2     0.900000E-01   1.00800           0
     10973 MEMB     82       POPC     C34      CTL2    -0.180000       12.0110           0
     10974 MEMB     82       POPC     H4X      HAL2     0.900000E-01   1.00800           0
     10975 MEMB     82       POPC     H4Y      HAL2     0.900000E-01   1.00800           0
     10976 MEMB     82       POPC     C35      CTL2    -0.180000       12.0110           0
     10977 MEMB     82       POPC     H5X      HAL2     0.900000E-01   1.00800           0
     10978 MEMB     82       POPC     H5Y      HAL2     0.900000E-01   1.00800           0
     10979 MEMB     82       POPC     C36      CTL2    -0.180000       12.0110           0
     10980 MEMB     82       POPC     H6X      HAL2     0.900000E-01   1.00800           0
     10981 MEMB     82       POPC     H6Y      HAL2     0.900000E-01   1.00800           0
     10982 MEMB     82       POPC     C37      CTL2    -0.180000       12.0110           0
     10983 MEMB     82       POPC     H7X      HAL2     0.900000E-01   1.00800           0
     10984 MEMB     82       POPC     H7Y      HAL2     0.900000E-01   1.00800           0
     10985 MEMB     82       POPC     C38      CTL2    -0.180000       12.0110           0
     10986 MEMB     82       POPC     H8X      HAL2     0.900000E-01   1.00800           0
     10987 MEMB     82       POPC     H8Y      HAL2     0.900000E-01   1.00800           0
     10988 MEMB     82       POPC     C39      CTL2    -0.180000       12.0110           0
     10989 MEMB     82       POPC     H9X      HAL2     0.900000E-01   1.00800           0
     10990 MEMB     82       POPC     H9Y      HAL2     0.900000E-01   1.00800           0
     10991 MEMB     82       POPC     C310     CTL2    -0.180000       12.0110           0
     10992 MEMB     82       POPC     H10X     HAL2     0.900000E-01   1.00800           0
     10993 MEMB     82       POPC     H10Y     HAL2     0.900000E-01   1.00800           0
     10994 MEMB     82       POPC     C311     CTL2    -0.180000       12.0110           0
     10995 MEMB     82       POPC     H11X     HAL2     0.900000E-01   1.00800           0
     10996 MEMB     82       POPC     H11Y     HAL2     0.900000E-01   1.00800           0
     10997 MEMB     82       POPC     C312     CTL2    -0.180000       12.0110           0
     10998 MEMB     82       POPC     H12X     HAL2     0.900000E-01   1.00800           0
     10999 MEMB     82       POPC     H12Y     HAL2     0.900000E-01   1.00800           0
     11000 MEMB     82       POPC     C313     CTL2    -0.180000       12.0110           0
     11001 MEMB     82       POPC     H13X     HAL2     0.900000E-01   1.00800           0
     11002 MEMB     82       POPC     H13Y     HAL2     0.900000E-01   1.00800           0
     11003 MEMB     82       POPC     C314     CTL2    -0.180000       12.0110           0
     11004 MEMB     82       POPC     H14X     HAL2     0.900000E-01   1.00800           0
     11005 MEMB     82       POPC     H14Y     HAL2     0.900000E-01   1.00800           0
     11006 MEMB     82       POPC     C315     CTL2    -0.180000       12.0110           0
     11007 MEMB     82       POPC     H15X     HAL2     0.900000E-01   1.00800           0
     11008 MEMB     82       POPC     H15Y     HAL2     0.900000E-01   1.00800           0
     11009 MEMB     82       POPC     C316     CTL3    -0.270000       12.0110           0
     11010 MEMB     82       POPC     H16X     HAL3     0.900000E-01   1.00800           0
     11011 MEMB     82       POPC     H16Y     HAL3     0.900000E-01   1.00800           0
     11012 MEMB     82       POPC     H16Z     HAL3     0.900000E-01   1.00800           0
     11013 MEMB     83       POPC     N        NTL     -0.600000       14.0070           0
     11014 MEMB     83       POPC     C12      CTL2    -0.100000       12.0110           0
     11015 MEMB     83       POPC     H12A     HL       0.250000       1.00800           0
     11016 MEMB     83       POPC     H12B     HL       0.250000       1.00800           0
     11017 MEMB     83       POPC     C13      CTL5    -0.350000       12.0110           0
     11018 MEMB     83       POPC     H13A     HL       0.250000       1.00800           0
     11019 MEMB     83       POPC     H13B     HL       0.250000       1.00800           0
     11020 MEMB     83       POPC     H13C     HL       0.250000       1.00800           0
     11021 MEMB     83       POPC     C14      CTL5    -0.350000       12.0110           0
     11022 MEMB     83       POPC     H14A     HL       0.250000       1.00800           0
     11023 MEMB     83       POPC     H14B     HL       0.250000       1.00800           0
     11024 MEMB     83       POPC     H14C     HL       0.250000       1.00800           0
     11025 MEMB     83       POPC     C15      CTL5    -0.350000       12.0110           0
     11026 MEMB     83       POPC     H15A     HL       0.250000       1.00800           0
     11027 MEMB     83       POPC     H15B     HL       0.250000       1.00800           0
     11028 MEMB     83       POPC     H15C     HL       0.250000       1.00800           0
     11029 MEMB     83       POPC     C11      CTL2    -0.800000E-01   12.0110           0
     11030 MEMB     83       POPC     H11A     HAL2     0.900000E-01   1.00800           0
     11031 MEMB     83       POPC     H11B     HAL2     0.900000E-01   1.00800           0
     11032 MEMB     83       POPC     P        PL       1.500000       30.9740           0
     11033 MEMB     83       POPC     O13      O2L     -0.780000       15.9994           0
     11034 MEMB     83       POPC     O14      O2L     -0.780000       15.9994           0
     11035 MEMB     83       POPC     O12      OSLP    -0.570000       15.9994           0
     11036 MEMB     83       POPC     O11      OSLP    -0.570000       15.9994           0
     11037 MEMB     83       POPC     C1       CTL2    -0.800000E-01   12.0110           0
     11038 MEMB     83       POPC     HA       HAL2     0.900000E-01   1.00800           0
     11039 MEMB     83       POPC     HB       HAL2     0.900000E-01   1.00800           0
     11040 MEMB     83       POPC     C2       CTL1     0.170000       12.0110           0
     11041 MEMB     83       POPC     HS       HAL1     0.900000E-01   1.00800           0
     11042 MEMB     83       POPC     O21      OSL     -0.490000       15.9994           0
     11043 MEMB     83       POPC     C21      CL       0.900000       12.0110           0
     11044 MEMB     83       POPC     O22      OBL     -0.630000       15.9994           0
     11045 MEMB     83       POPC     C22      CTL2    -0.220000       12.0110           0
     11046 MEMB     83       POPC     H2R      HAL2     0.900000E-01   1.00800           0
     11047 MEMB     83       POPC     H2S      HAL2     0.900000E-01   1.00800           0
     11048 MEMB     83       POPC     C3       CTL2     0.800000E-01   12.0110           0
     11049 MEMB     83       POPC     HX       HAL2     0.900000E-01   1.00800           0
     11050 MEMB     83       POPC     HY       HAL2     0.900000E-01   1.00800           0
     11051 MEMB     83       POPC     O31      OSL     -0.490000       15.9994           0
     11052 MEMB     83       POPC     C31      CL       0.900000       12.0110           0
     11053 MEMB     83       POPC     O32      OBL     -0.630000       15.9994           0
     11054 MEMB     83       POPC     C32      CTL2    -0.220000       12.0110           0
     11055 MEMB     83       POPC     H2X      HAL2     0.900000E-01   1.00800           0
     11056 MEMB     83       POPC     H2Y      HAL2     0.900000E-01   1.00800           0
     11057 MEMB     83       POPC     C23      CTL2    -0.180000       12.0110           0
     11058 MEMB     83       POPC     H3R      HAL2     0.900000E-01   1.00800           0
     11059 MEMB     83       POPC     H3S      HAL2     0.900000E-01   1.00800           0
     11060 MEMB     83       POPC     C24      CTL2    -0.180000       12.0110           0
     11061 MEMB     83       POPC     H4R      HAL2     0.900000E-01   1.00800           0
     11062 MEMB     83       POPC     H4S      HAL2     0.900000E-01   1.00800           0
     11063 MEMB     83       POPC     C25      CTL2    -0.180000       12.0110           0
     11064 MEMB     83       POPC     H5R      HAL2     0.900000E-01   1.00800           0
     11065 MEMB     83       POPC     H5S      HAL2     0.900000E-01   1.00800           0
     11066 MEMB     83       POPC     C26      CTL2    -0.180000       12.0110           0
     11067 MEMB     83       POPC     H6R      HAL2     0.900000E-01   1.00800           0
     11068 MEMB     83       POPC     H6S      HAL2     0.900000E-01   1.00800           0
     11069 MEMB     83       POPC     C27      CTL2    -0.180000       12.0110           0
     11070 MEMB     83       POPC     H7R      HAL2     0.900000E-01   1.00800           0
     11071 MEMB     83       POPC     H7S      HAL2     0.900000E-01   1.00800           0
     11072 MEMB     83       POPC     C28      CTL2    -0.180000       12.0110           0
     11073 MEMB     83       POPC     H8R      HAL2     0.900000E-01   1.00800           0
     11074 MEMB     83       POPC     H8S      HAL2     0.900000E-01   1.00800           0
     11075 MEMB     83       POPC     C29      CEL1    -0.150000       12.0110           0
     11076 MEMB     83       POPC     H91      HEL1     0.150000       1.00800           0
     11077 MEMB     83       POPC     C210     CEL1    -0.150000       12.0110           0
     11078 MEMB     83       POPC     H101     HEL1     0.150000       1.00800           0
     11079 MEMB     83       POPC     C211     CTL2    -0.180000       12.0110           0
     11080 MEMB     83       POPC     H11R     HAL2     0.900000E-01   1.00800           0
     11081 MEMB     83       POPC     H11S     HAL2     0.900000E-01   1.00800           0
     11082 MEMB     83       POPC     C212     CTL2    -0.180000       12.0110           0
     11083 MEMB     83       POPC     H12R     HAL2     0.900000E-01   1.00800           0
     11084 MEMB     83       POPC     H12S     HAL2     0.900000E-01   1.00800           0
     11085 MEMB     83       POPC     C213     CTL2    -0.180000       12.0110           0
     11086 MEMB     83       POPC     H13R     HAL2     0.900000E-01   1.00800           0
     11087 MEMB     83       POPC     H13S     HAL2     0.900000E-01   1.00800           0
     11088 MEMB     83       POPC     C214     CTL2    -0.180000       12.0110           0
     11089 MEMB     83       POPC     H14R     HAL2     0.900000E-01   1.00800           0
     11090 MEMB     83       POPC     H14S     HAL2     0.900000E-01   1.00800           0
     11091 MEMB     83       POPC     C215     CTL2    -0.180000       12.0110           0
     11092 MEMB     83       POPC     H15R     HAL2     0.900000E-01   1.00800           0
     11093 MEMB     83       POPC     H15S     HAL2     0.900000E-01   1.00800           0
     11094 MEMB     83       POPC     C216     CTL2    -0.180000       12.0110           0
     11095 MEMB     83       POPC     H16R     HAL2     0.900000E-01   1.00800           0
     11096 MEMB     83       POPC     H16S     HAL2     0.900000E-01   1.00800           0
     11097 MEMB     83       POPC     C217     CTL2    -0.180000       12.0110           0
     11098 MEMB     83       POPC     H17R     HAL2     0.900000E-01   1.00800           0
     11099 MEMB     83       POPC     H17S     HAL2     0.900000E-01   1.00800           0
     11100 MEMB     83       POPC     C218     CTL3    -0.270000       12.0110           0
     11101 MEMB     83       POPC     H18R     HAL3     0.900000E-01   1.00800           0
     11102 MEMB     83       POPC     H18S     HAL3     0.900000E-01   1.00800           0
     11103 MEMB     83       POPC     H18T     HAL3     0.900000E-01   1.00800           0
     11104 MEMB     83       POPC     C33      CTL2    -0.180000       12.0110           0
     11105 MEMB     83       POPC     H3X      HAL2     0.900000E-01   1.00800           0
     11106 MEMB     83       POPC     H3Y      HAL2     0.900000E-01   1.00800           0
     11107 MEMB     83       POPC     C34      CTL2    -0.180000       12.0110           0
     11108 MEMB     83       POPC     H4X      HAL2     0.900000E-01   1.00800           0
     11109 MEMB     83       POPC     H4Y      HAL2     0.900000E-01   1.00800           0
     11110 MEMB     83       POPC     C35      CTL2    -0.180000       12.0110           0
     11111 MEMB     83       POPC     H5X      HAL2     0.900000E-01   1.00800           0
     11112 MEMB     83       POPC     H5Y      HAL2     0.900000E-01   1.00800           0
     11113 MEMB     83       POPC     C36      CTL2    -0.180000       12.0110           0
     11114 MEMB     83       POPC     H6X      HAL2     0.900000E-01   1.00800           0
     11115 MEMB     83       POPC     H6Y      HAL2     0.900000E-01   1.00800           0
     11116 MEMB     83       POPC     C37      CTL2    -0.180000       12.0110           0
     11117 MEMB     83       POPC     H7X      HAL2     0.900000E-01   1.00800           0
     11118 MEMB     83       POPC     H7Y      HAL2     0.900000E-01   1.00800           0
     11119 MEMB     83       POPC     C38      CTL2    -0.180000       12.0110           0
     11120 MEMB     83       POPC     H8X      HAL2     0.900000E-01   1.00800           0
     11121 MEMB     83       POPC     H8Y      HAL2     0.900000E-01   1.00800           0
     11122 MEMB     83       POPC     C39      CTL2    -0.180000       12.0110           0
     11123 MEMB     83       POPC     H9X      HAL2     0.900000E-01   1.00800           0
     11124 MEMB     83       POPC     H9Y      HAL2     0.900000E-01   1.00800           0
     11125 MEMB     83       POPC     C310     CTL2    -0.180000       12.0110           0
     11126 MEMB     83       POPC     H10X     HAL2     0.900000E-01   1.00800           0
     11127 MEMB     83       POPC     H10Y     HAL2     0.900000E-01   1.00800           0
     11128 MEMB     83       POPC     C311     CTL2    -0.180000       12.0110           0
     11129 MEMB     83       POPC     H11X     HAL2     0.900000E-01   1.00800           0
     11130 MEMB     83       POPC     H11Y     HAL2     0.900000E-01   1.00800           0
     11131 MEMB     83       POPC     C312     CTL2    -0.180000       12.0110           0
     11132 MEMB     83       POPC     H12X     HAL2     0.900000E-01   1.00800           0
     11133 MEMB     83       POPC     H12Y     HAL2     0.900000E-01   1.00800           0
     11134 MEMB     83       POPC     C313     CTL2    -0.180000       12.0110           0
     11135 MEMB     83       POPC     H13X     HAL2     0.900000E-01   1.00800           0
     11136 MEMB     83       POPC     H13Y     HAL2     0.900000E-01   1.00800           0
     11137 MEMB     83       POPC     C314     CTL2    -0.180000       12.0110           0
     11138 MEMB     83       POPC     H14X     HAL2     0.900000E-01   1.00800           0
     11139 MEMB     83       POPC     H14Y     HAL2     0.900000E-01   1.00800           0
     11140 MEMB     83       POPC     C315     CTL2    -0.180000       12.0110           0
     11141 MEMB     83       POPC     H15X     HAL2     0.900000E-01   1.00800           0
     11142 MEMB     83       POPC     H15Y     HAL2     0.900000E-01   1.00800           0
     11143 MEMB     83       POPC     C316     CTL3    -0.270000       12.0110           0
     11144 MEMB     83       POPC     H16X     HAL3     0.900000E-01   1.00800           0
     11145 MEMB     83       POPC     H16Y     HAL3     0.900000E-01   1.00800           0
     11146 MEMB     83       POPC     H16Z     HAL3     0.900000E-01   1.00800           0
     11147 MEMB     84       POPC     N        NTL     -0.600000       14.0070           0
     11148 MEMB     84       POPC     C12      CTL2    -0.100000       12.0110           0
     11149 MEMB     84       POPC     H12A     HL       0.250000       1.00800           0
     11150 MEMB     84       POPC     H12B     HL       0.250000       1.00800           0
     11151 MEMB     84       POPC     C13      CTL5    -0.350000       12.0110           0
     11152 MEMB     84       POPC     H13A     HL       0.250000       1.00800           0
     11153 MEMB     84       POPC     H13B     HL       0.250000       1.00800           0
     11154 MEMB     84       POPC     H13C     HL       0.250000       1.00800           0
     11155 MEMB     84       POPC     C14      CTL5    -0.350000       12.0110           0
     11156 MEMB     84       POPC     H14A     HL       0.250000       1.00800           0
     11157 MEMB     84       POPC     H14B     HL       0.250000       1.00800           0
     11158 MEMB     84       POPC     H14C     HL       0.250000       1.00800           0
     11159 MEMB     84       POPC     C15      CTL5    -0.350000       12.0110           0
     11160 MEMB     84       POPC     H15A     HL       0.250000       1.00800           0
     11161 MEMB     84       POPC     H15B     HL       0.250000       1.00800           0
     11162 MEMB     84       POPC     H15C     HL       0.250000       1.00800           0
     11163 MEMB     84       POPC     C11      CTL2    -0.800000E-01   12.0110           0
     11164 MEMB     84       POPC     H11A     HAL2     0.900000E-01   1.00800           0
     11165 MEMB     84       POPC     H11B     HAL2     0.900000E-01   1.00800           0
     11166 MEMB     84       POPC     P        PL       1.500000       30.9740           0
     11167 MEMB     84       POPC     O13      O2L     -0.780000       15.9994           0
     11168 MEMB     84       POPC     O14      O2L     -0.780000       15.9994           0
     11169 MEMB     84       POPC     O12      OSLP    -0.570000       15.9994           0
     11170 MEMB     84       POPC     O11      OSLP    -0.570000       15.9994           0
     11171 MEMB     84       POPC     C1       CTL2    -0.800000E-01   12.0110           0
     11172 MEMB     84       POPC     HA       HAL2     0.900000E-01   1.00800           0
     11173 MEMB     84       POPC     HB       HAL2     0.900000E-01   1.00800           0
     11174 MEMB     84       POPC     C2       CTL1     0.170000       12.0110           0
     11175 MEMB     84       POPC     HS       HAL1     0.900000E-01   1.00800           0
     11176 MEMB     84       POPC     O21      OSL     -0.490000       15.9994           0
     11177 MEMB     84       POPC     C21      CL       0.900000       12.0110           0
     11178 MEMB     84       POPC     O22      OBL     -0.630000       15.9994           0
     11179 MEMB     84       POPC     C22      CTL2    -0.220000       12.0110           0
     11180 MEMB     84       POPC     H2R      HAL2     0.900000E-01   1.00800           0
     11181 MEMB     84       POPC     H2S      HAL2     0.900000E-01   1.00800           0
     11182 MEMB     84       POPC     C3       CTL2     0.800000E-01   12.0110           0
     11183 MEMB     84       POPC     HX       HAL2     0.900000E-01   1.00800           0
     11184 MEMB     84       POPC     HY       HAL2     0.900000E-01   1.00800           0
     11185 MEMB     84       POPC     O31      OSL     -0.490000       15.9994           0
     11186 MEMB     84       POPC     C31      CL       0.900000       12.0110           0
     11187 MEMB     84       POPC     O32      OBL     -0.630000       15.9994           0
     11188 MEMB     84       POPC     C32      CTL2    -0.220000       12.0110           0
     11189 MEMB     84       POPC     H2X      HAL2     0.900000E-01   1.00800           0
     11190 MEMB     84       POPC     H2Y      HAL2     0.900000E-01   1.00800           0
     11191 MEMB     84       POPC     C23      CTL2    -0.180000       12.0110           0
     11192 MEMB     84       POPC     H3R      HAL2     0.900000E-01   1.00800           0
     11193 MEMB     84       POPC     H3S      HAL2     0.900000E-01   1.00800           0
     11194 MEMB     84       POPC     C24      CTL2    -0.180000       12.0110           0
     11195 MEMB     84       POPC     H4R      HAL2     0.900000E-01   1.00800           0
     11196 MEMB     84       POPC     H4S      HAL2     0.900000E-01   1.00800           0
     11197 MEMB     84       POPC     C25      CTL2    -0.180000       12.0110           0
     11198 MEMB     84       POPC     H5R      HAL2     0.900000E-01   1.00800           0
     11199 MEMB     84       POPC     H5S      HAL2     0.900000E-01   1.00800           0
     11200 MEMB     84       POPC     C26      CTL2    -0.180000       12.0110           0
     11201 MEMB     84       POPC     H6R      HAL2     0.900000E-01   1.00800           0
     11202 MEMB     84       POPC     H6S      HAL2     0.900000E-01   1.00800           0
     11203 MEMB     84       POPC     C27      CTL2    -0.180000       12.0110           0
     11204 MEMB     84       POPC     H7R      HAL2     0.900000E-01   1.00800           0
     11205 MEMB     84       POPC     H7S      HAL2     0.900000E-01   1.00800           0
     11206 MEMB     84       POPC     C28      CTL2    -0.180000       12.0110           0
     11207 MEMB     84       POPC     H8R      HAL2     0.900000E-01   1.00800           0
     11208 MEMB     84       POPC     H8S      HAL2     0.900000E-01   1.00800           0
     11209 MEMB     84       POPC     C29      CEL1    -0.150000       12.0110           0
     11210 MEMB     84       POPC     H91      HEL1     0.150000       1.00800           0
     11211 MEMB     84       POPC     C210     CEL1    -0.150000       12.0110           0
     11212 MEMB     84       POPC     H101     HEL1     0.150000       1.00800           0
     11213 MEMB     84       POPC     C211     CTL2    -0.180000       12.0110           0
     11214 MEMB     84       POPC     H11R     HAL2     0.900000E-01   1.00800           0
     11215 MEMB     84       POPC     H11S     HAL2     0.900000E-01   1.00800           0
     11216 MEMB     84       POPC     C212     CTL2    -0.180000       12.0110           0
     11217 MEMB     84       POPC     H12R     HAL2     0.900000E-01   1.00800           0
     11218 MEMB     84       POPC     H12S     HAL2     0.900000E-01   1.00800           0
     11219 MEMB     84       POPC     C213     CTL2    -0.180000       12.0110           0
     11220 MEMB     84       POPC     H13R     HAL2     0.900000E-01   1.00800           0
     11221 MEMB     84       POPC     H13S     HAL2     0.900000E-01   1.00800           0
     11222 MEMB     84       POPC     C214     CTL2    -0.180000       12.0110           0
     11223 MEMB     84       POPC     H14R     HAL2     0.900000E-01   1.00800           0
     11224 MEMB     84       POPC     H14S     HAL2     0.900000E-01   1.00800           0
     11225 MEMB     84       POPC     C215     CTL2    -0.180000       12.0110           0
     11226 MEMB     84       POPC     H15R     HAL2     0.900000E-01   1.00800           0
     11227 MEMB     84       POPC     H15S     HAL2     0.900000E-01   1.00800           0
     11228 MEMB     84       POPC     C216     CTL2    -0.180000       12.0110           0
     11229 MEMB     84       POPC     H16R     HAL2     0.900000E-01   1.00800           0
     11230 MEMB     84       POPC     H16S     HAL2     0.900000E-01   1.00800           0
     11231 MEMB     84       POPC     C217     CTL2    -0.180000       12.0110           0
     11232 MEMB     84       POPC     H17R     HAL2     0.900000E-01   1.00800           0
     11233 MEMB     84       POPC     H17S     HAL2     0.900000E-01   1.00800           0
     11234 MEMB     84       POPC     C218     CTL3    -0.270000       12.0110           0
     11235 MEMB     84       POPC     H18R     HAL3     0.900000E-01   1.00800           0
     11236 MEMB     84       POPC     H18S     HAL3     0.900000E-01   1.00800           0
     11237 MEMB     84       POPC     H18T     HAL3     0.900000E-01   1.00800           0
     11238 MEMB     84       POPC     C33      CTL2    -0.180000       12.0110           0
     11239 MEMB     84       POPC     H3X      HAL2     0.900000E-01   1.00800           0
     11240 MEMB     84       POPC     H3Y      HAL2     0.900000E-01   1.00800           0
     11241 MEMB     84       POPC     C34      CTL2    -0.180000       12.0110           0
     11242 MEMB     84       POPC     H4X      HAL2     0.900000E-01   1.00800           0
     11243 MEMB     84       POPC     H4Y      HAL2     0.900000E-01   1.00800           0
     11244 MEMB     84       POPC     C35      CTL2    -0.180000       12.0110           0
     11245 MEMB     84       POPC     H5X      HAL2     0.900000E-01   1.00800           0
     11246 MEMB     84       POPC     H5Y      HAL2     0.900000E-01   1.00800           0
     11247 MEMB     84       POPC     C36      CTL2    -0.180000       12.0110           0
     11248 MEMB     84       POPC     H6X      HAL2     0.900000E-01   1.00800           0
     11249 MEMB     84       POPC     H6Y      HAL2     0.900000E-01   1.00800           0
     11250 MEMB     84       POPC     C37      CTL2    -0.180000       12.0110           0
     11251 MEMB     84       POPC     H7X      HAL2     0.900000E-01   1.00800           0
     11252 MEMB     84       POPC     H7Y      HAL2     0.900000E-01   1.00800           0
     11253 MEMB     84       POPC     C38      CTL2    -0.180000       12.0110           0
     11254 MEMB     84       POPC     H8X      HAL2     0.900000E-01   1.00800           0
     11255 MEMB     84       POPC     H8Y      HAL2     0.900000E-01   1.00800           0
     11256 MEMB     84       POPC     C39      CTL2    -0.180000       12.0110           0
     11257 MEMB     84       POPC     H9X      HAL2     0.900000E-01   1.00800           0
     11258 MEMB     84       POPC     H9Y      HAL2     0.900000E-01   1.00800           0
     11259 MEMB     84       POPC     C310     CTL2    -0.180000       12.0110           0
     11260 MEMB     84       POPC     H10X     HAL2     0.900000E-01   1.00800           0
     11261 MEMB     84       POPC     H10Y     HAL2     0.900000E-01   1.00800           0
     11262 MEMB     84       POPC     C311     CTL2    -0.180000       12.0110           0
     11263 MEMB     84       POPC     H11X     HAL2     0.900000E-01   1.00800           0
     11264 MEMB     84       POPC     H11Y     HAL2     0.900000E-01   1.00800           0
     11265 MEMB     84       POPC     C312     CTL2    -0.180000       12.0110           0
     11266 MEMB     84       POPC     H12X     HAL2     0.900000E-01   1.00800           0
     11267 MEMB     84       POPC     H12Y     HAL2     0.900000E-01   1.00800           0
     11268 MEMB     84       POPC     C313     CTL2    -0.180000       12.0110           0
     11269 MEMB     84       POPC     H13X     HAL2     0.900000E-01   1.00800           0
     11270 MEMB     84       POPC     H13Y     HAL2     0.900000E-01   1.00800           0
     11271 MEMB     84       POPC     C314     CTL2    -0.180000       12.0110           0
     11272 MEMB     84       POPC     H14X     HAL2     0.900000E-01   1.00800           0
     11273 MEMB     84       POPC     H14Y     HAL2     0.900000E-01   1.00800           0
     11274 MEMB     84       POPC     C315     CTL2    -0.180000       12.0110           0
     11275 MEMB     84       POPC     H15X     HAL2     0.900000E-01   1.00800           0
     11276 MEMB     84       POPC     H15Y     HAL2     0.900000E-01   1.00800           0
     11277 MEMB     84       POPC     C316     CTL3    -0.270000       12.0110           0
     11278 MEMB     84       POPC     H16X     HAL3     0.900000E-01   1.00800           0
     11279 MEMB     84       POPC     H16Y     HAL3     0.900000E-01   1.00800           0
     11280 MEMB     84       POPC     H16Z     HAL3     0.900000E-01   1.00800           0
     11281 MEMB     85       POPC     N        NTL     -0.600000       14.0070           0
     11282 MEMB     85       POPC     C12      CTL2    -0.100000       12.0110           0
     11283 MEMB     85       POPC     H12A     HL       0.250000       1.00800           0
     11284 MEMB     85       POPC     H12B     HL       0.250000       1.00800           0
     11285 MEMB     85       POPC     C13      CTL5    -0.350000       12.0110           0
     11286 MEMB     85       POPC     H13A     HL       0.250000       1.00800           0
     11287 MEMB     85       POPC     H13B     HL       0.250000       1.00800           0
     11288 MEMB     85       POPC     H13C     HL       0.250000       1.00800           0
     11289 MEMB     85       POPC     C14      CTL5    -0.350000       12.0110           0
     11290 MEMB     85       POPC     H14A     HL       0.250000       1.00800           0
     11291 MEMB     85       POPC     H14B     HL       0.250000       1.00800           0
     11292 MEMB     85       POPC     H14C     HL       0.250000       1.00800           0
     11293 MEMB     85       POPC     C15      CTL5    -0.350000       12.0110           0
     11294 MEMB     85       POPC     H15A     HL       0.250000       1.00800           0
     11295 MEMB     85       POPC     H15B     HL       0.250000       1.00800           0
     11296 MEMB     85       POPC     H15C     HL       0.250000       1.00800           0
     11297 MEMB     85       POPC     C11      CTL2    -0.800000E-01   12.0110           0
     11298 MEMB     85       POPC     H11A     HAL2     0.900000E-01   1.00800           0
     11299 MEMB     85       POPC     H11B     HAL2     0.900000E-01   1.00800           0
     11300 MEMB     85       POPC     P        PL       1.500000       30.9740           0
     11301 MEMB     85       POPC     O13      O2L     -0.780000       15.9994           0
     11302 MEMB     85       POPC     O14      O2L     -0.780000       15.9994           0
     11303 MEMB     85       POPC     O12      OSLP    -0.570000       15.9994           0
     11304 MEMB     85       POPC     O11      OSLP    -0.570000       15.9994           0
     11305 MEMB     85       POPC     C1       CTL2    -0.800000E-01   12.0110           0
     11306 MEMB     85       POPC     HA       HAL2     0.900000E-01   1.00800           0
     11307 MEMB     85       POPC     HB       HAL2     0.900000E-01   1.00800           0
     11308 MEMB     85       POPC     C2       CTL1     0.170000       12.0110           0
     11309 MEMB     85       POPC     HS       HAL1     0.900000E-01   1.00800           0
     11310 MEMB     85       POPC     O21      OSL     -0.490000       15.9994           0
     11311 MEMB     85       POPC     C21      CL       0.900000       12.0110           0
     11312 MEMB     85       POPC     O22      OBL     -0.630000       15.9994           0
     11313 MEMB     85       POPC     C22      CTL2    -0.220000       12.0110           0
     11314 MEMB     85       POPC     H2R      HAL2     0.900000E-01   1.00800           0
     11315 MEMB     85       POPC     H2S      HAL2     0.900000E-01   1.00800           0
     11316 MEMB     85       POPC     C3       CTL2     0.800000E-01   12.0110           0
     11317 MEMB     85       POPC     HX       HAL2     0.900000E-01   1.00800           0
     11318 MEMB     85       POPC     HY       HAL2     0.900000E-01   1.00800           0
     11319 MEMB     85       POPC     O31      OSL     -0.490000       15.9994           0
     11320 MEMB     85       POPC     C31      CL       0.900000       12.0110           0
     11321 MEMB     85       POPC     O32      OBL     -0.630000       15.9994           0
     11322 MEMB     85       POPC     C32      CTL2    -0.220000       12.0110           0
     11323 MEMB     85       POPC     H2X      HAL2     0.900000E-01   1.00800           0
     11324 MEMB     85       POPC     H2Y      HAL2     0.900000E-01   1.00800           0
     11325 MEMB     85       POPC     C23      CTL2    -0.180000       12.0110           0
     11326 MEMB     85       POPC     H3R      HAL2     0.900000E-01   1.00800           0
     11327 MEMB     85       POPC     H3S      HAL2     0.900000E-01   1.00800           0
     11328 MEMB     85       POPC     C24      CTL2    -0.180000       12.0110           0
     11329 MEMB     85       POPC     H4R      HAL2     0.900000E-01   1.00800           0
     11330 MEMB     85       POPC     H4S      HAL2     0.900000E-01   1.00800           0
     11331 MEMB     85       POPC     C25      CTL2    -0.180000       12.0110           0
     11332 MEMB     85       POPC     H5R      HAL2     0.900000E-01   1.00800           0
     11333 MEMB     85       POPC     H5S      HAL2     0.900000E-01   1.00800           0
     11334 MEMB     85       POPC     C26      CTL2    -0.180000       12.0110           0
     11335 MEMB     85       POPC     H6R      HAL2     0.900000E-01   1.00800           0
     11336 MEMB     85       POPC     H6S      HAL2     0.900000E-01   1.00800           0
     11337 MEMB     85       POPC     C27      CTL2    -0.180000       12.0110           0
     11338 MEMB     85       POPC     H7R      HAL2     0.900000E-01   1.00800           0
     11339 MEMB     85       POPC     H7S      HAL2     0.900000E-01   1.00800           0
     11340 MEMB     85       POPC     C28      CTL2    -0.180000       12.0110           0
     11341 MEMB     85       POPC     H8R      HAL2     0.900000E-01   1.00800           0
     11342 MEMB     85       POPC     H8S      HAL2     0.900000E-01   1.00800           0
     11343 MEMB     85       POPC     C29      CEL1    -0.150000       12.0110           0
     11344 MEMB     85       POPC     H91      HEL1     0.150000       1.00800           0
     11345 MEMB     85       POPC     C210     CEL1    -0.150000       12.0110           0
     11346 MEMB     85       POPC     H101     HEL1     0.150000       1.00800           0
     11347 MEMB     85       POPC     C211     CTL2    -0.180000       12.0110           0
     11348 MEMB     85       POPC     H11R     HAL2     0.900000E-01   1.00800           0
     11349 MEMB     85       POPC     H11S     HAL2     0.900000E-01   1.00800           0
     11350 MEMB     85       POPC     C212     CTL2    -0.180000       12.0110           0
     11351 MEMB     85       POPC     H12R     HAL2     0.900000E-01   1.00800           0
     11352 MEMB     85       POPC     H12S     HAL2     0.900000E-01   1.00800           0
     11353 MEMB     85       POPC     C213     CTL2    -0.180000       12.0110           0
     11354 MEMB     85       POPC     H13R     HAL2     0.900000E-01   1.00800           0
     11355 MEMB     85       POPC     H13S     HAL2     0.900000E-01   1.00800           0
     11356 MEMB     85       POPC     C214     CTL2    -0.180000       12.0110           0
     11357 MEMB     85       POPC     H14R     HAL2     0.900000E-01   1.00800           0
     11358 MEMB     85       POPC     H14S     HAL2     0.900000E-01   1.00800           0
     11359 MEMB     85       POPC     C215     CTL2    -0.180000       12.0110           0
     11360 MEMB     85       POPC     H15R     HAL2     0.900000E-01   1.00800           0
     11361 MEMB     85       POPC     H15S     HAL2     0.900000E-01   1.00800           0
     11362 MEMB     85       POPC     C216     CTL2    -0.180000       12.0110           0
     11363 MEMB     85       POPC     H16R     HAL2     0.900000E-01   1.00800           0
     11364 MEMB     85       POPC     H16S     HAL2     0.900000E-01   1.00800           0
     11365 MEMB     85       POPC     C217     CTL2    -0.180000       12.0110           0
     11366 MEMB     85       POPC     H17R     HAL2     0.900000E-01   1.00800           0
     11367 MEMB     85       POPC     H17S     HAL2     0.900000E-01   1.00800           0
     11368 MEMB     85       POPC     C218     CTL3    -0.270000       12.0110           0
     11369 MEMB     85       POPC     H18R     HAL3     0.900000E-01   1.00800           0
     11370 MEMB     85       POPC     H18S     HAL3     0.900000E-01   1.00800           0
     11371 MEMB     85       POPC     H18T     HAL3     0.900000E-01   1.00800           0
     11372 MEMB     85       POPC     C33      CTL2    -0.180000       12.0110           0
     11373 MEMB     85       POPC     H3X      HAL2     0.900000E-01   1.00800           0
     11374 MEMB     85       POPC     H3Y      HAL2     0.900000E-01   1.00800           0
     11375 MEMB     85       POPC     C34      CTL2    -0.180000       12.0110           0
     11376 MEMB     85       POPC     H4X      HAL2     0.900000E-01   1.00800           0
     11377 MEMB     85       POPC     H4Y      HAL2     0.900000E-01   1.00800           0
     11378 MEMB     85       POPC     C35      CTL2    -0.180000       12.0110           0
     11379 MEMB     85       POPC     H5X      HAL2     0.900000E-01   1.00800           0
     11380 MEMB     85       POPC     H5Y      HAL2     0.900000E-01   1.00800           0
     11381 MEMB     85       POPC     C36      CTL2    -0.180000       12.0110           0
     11382 MEMB     85       POPC     H6X      HAL2     0.900000E-01   1.00800           0
     11383 MEMB     85       POPC     H6Y      HAL2     0.900000E-01   1.00800           0
     11384 MEMB     85       POPC     C37      CTL2    -0.180000       12.0110           0
     11385 MEMB     85       POPC     H7X      HAL2     0.900000E-01   1.00800           0
     11386 MEMB     85       POPC     H7Y      HAL2     0.900000E-01   1.00800           0
     11387 MEMB     85       POPC     C38      CTL2    -0.180000       12.0110           0
     11388 MEMB     85       POPC     H8X      HAL2     0.900000E-01   1.00800           0
     11389 MEMB     85       POPC     H8Y      HAL2     0.900000E-01   1.00800           0
     11390 MEMB     85       POPC     C39      CTL2    -0.180000       12.0110           0
     11391 MEMB     85       POPC     H9X      HAL2     0.900000E-01   1.00800           0
     11392 MEMB     85       POPC     H9Y      HAL2     0.900000E-01   1.00800           0
     11393 MEMB     85       POPC     C310     CTL2    -0.180000       12.0110           0
     11394 MEMB     85       POPC     H10X     HAL2     0.900000E-01   1.00800           0
     11395 MEMB     85       POPC     H10Y     HAL2     0.900000E-01   1.00800           0
     11396 MEMB     85       POPC     C311     CTL2    -0.180000       12.0110           0
     11397 MEMB     85       POPC     H11X     HAL2     0.900000E-01   1.00800           0
     11398 MEMB     85       POPC     H11Y     HAL2     0.900000E-01   1.00800           0
     11399 MEMB     85       POPC     C312     CTL2    -0.180000       12.0110           0
     11400 MEMB     85       POPC     H12X     HAL2     0.900000E-01   1.00800           0
     11401 MEMB     85       POPC     H12Y     HAL2     0.900000E-01   1.00800           0
     11402 MEMB     85       POPC     C313     CTL2    -0.180000       12.0110           0
     11403 MEMB     85       POPC     H13X     HAL2     0.900000E-01   1.00800           0
     11404 MEMB     85       POPC     H13Y     HAL2     0.900000E-01   1.00800           0
     11405 MEMB     85       POPC     C314     CTL2    -0.180000       12.0110           0
     11406 MEMB     85       POPC     H14X     HAL2     0.900000E-01   1.00800           0
     11407 MEMB     85       POPC     H14Y     HAL2     0.900000E-01   1.00800           0
     11408 MEMB     85       POPC     C315     CTL2    -0.180000       12.0110           0
     11409 MEMB     85       POPC     H15X     HAL2     0.900000E-01   1.00800           0
     11410 MEMB     85       POPC     H15Y     HAL2     0.900000E-01   1.00800           0
     11411 MEMB     85       POPC     C316     CTL3    -0.270000       12.0110           0
     11412 MEMB     85       POPC     H16X     HAL3     0.900000E-01   1.00800           0
     11413 MEMB     85       POPC     H16Y     HAL3     0.900000E-01   1.00800           0
     11414 MEMB     85       POPC     H16Z     HAL3     0.900000E-01   1.00800           0
     11415 MEMB     86       POPS     N        NH3L    -0.300000       14.0070           0
     11416 MEMB     86       POPS     HN1      HCL      0.330000       1.00800           0
     11417 MEMB     86       POPS     HN2      HCL      0.330000       1.00800           0
     11418 MEMB     86       POPS     HN3      HCL      0.330000       1.00800           0
     11419 MEMB     86       POPS     C12      CTL1     0.210000       12.0110           0
     11420 MEMB     86       POPS     H12A     HBL      0.100000       1.00800           0
     11421 MEMB     86       POPS     C13      CCL      0.340000       12.0110           0
     11422 MEMB     86       POPS     O13A     OCL     -0.670000       15.9994           0
     11423 MEMB     86       POPS     O13B     OCL     -0.670000       15.9994           0
     11424 MEMB     86       POPS     C11      CTL2    -0.800000E-01   12.0110           0
     11425 MEMB     86       POPS     H11A     HAL2     0.900000E-01   1.00800           0
     11426 MEMB     86       POPS     H11B     HAL2     0.900000E-01   1.00800           0
     11427 MEMB     86       POPS     P        PL       1.500000       30.9740           0
     11428 MEMB     86       POPS     O13      O2L     -0.780000       15.9994           0
     11429 MEMB     86       POPS     O14      O2L     -0.780000       15.9994           0
     11430 MEMB     86       POPS     O12      OSLP    -0.570000       15.9994           0
     11431 MEMB     86       POPS     O11      OSLP    -0.570000       15.9994           0
     11432 MEMB     86       POPS     C1       CTL2    -0.800000E-01   12.0110           0
     11433 MEMB     86       POPS     HA       HAL2     0.900000E-01   1.00800           0
     11434 MEMB     86       POPS     HB       HAL2     0.900000E-01   1.00800           0
     11435 MEMB     86       POPS     C2       CTL1     0.170000       12.0110           0
     11436 MEMB     86       POPS     HS       HAL1     0.900000E-01   1.00800           0
     11437 MEMB     86       POPS     O21      OSL     -0.490000       15.9994           0
     11438 MEMB     86       POPS     C21      CL       0.900000       12.0110           0
     11439 MEMB     86       POPS     O22      OBL     -0.630000       15.9994           0
     11440 MEMB     86       POPS     C22      CTL2    -0.220000       12.0110           0
     11441 MEMB     86       POPS     H2R      HAL2     0.900000E-01   1.00800           0
     11442 MEMB     86       POPS     H2S      HAL2     0.900000E-01   1.00800           0
     11443 MEMB     86       POPS     C3       CTL2     0.800000E-01   12.0110           0
     11444 MEMB     86       POPS     HX       HAL2     0.900000E-01   1.00800           0
     11445 MEMB     86       POPS     HY       HAL2     0.900000E-01   1.00800           0
     11446 MEMB     86       POPS     O31      OSL     -0.490000       15.9994           0
     11447 MEMB     86       POPS     C31      CL       0.900000       12.0110           0
     11448 MEMB     86       POPS     O32      OBL     -0.630000       15.9994           0
     11449 MEMB     86       POPS     C32      CTL2    -0.220000       12.0110           0
     11450 MEMB     86       POPS     H2X      HAL2     0.900000E-01   1.00800           0
     11451 MEMB     86       POPS     H2Y      HAL2     0.900000E-01   1.00800           0
     11452 MEMB     86       POPS     C23      CTL2    -0.180000       12.0110           0
     11453 MEMB     86       POPS     H3R      HAL2     0.900000E-01   1.00800           0
     11454 MEMB     86       POPS     H3S      HAL2     0.900000E-01   1.00800           0
     11455 MEMB     86       POPS     C24      CTL2    -0.180000       12.0110           0
     11456 MEMB     86       POPS     H4R      HAL2     0.900000E-01   1.00800           0
     11457 MEMB     86       POPS     H4S      HAL2     0.900000E-01   1.00800           0
     11458 MEMB     86       POPS     C25      CTL2    -0.180000       12.0110           0
     11459 MEMB     86       POPS     H5R      HAL2     0.900000E-01   1.00800           0
     11460 MEMB     86       POPS     H5S      HAL2     0.900000E-01   1.00800           0
     11461 MEMB     86       POPS     C26      CTL2    -0.180000       12.0110           0
     11462 MEMB     86       POPS     H6R      HAL2     0.900000E-01   1.00800           0
     11463 MEMB     86       POPS     H6S      HAL2     0.900000E-01   1.00800           0
     11464 MEMB     86       POPS     C27      CTL2    -0.180000       12.0110           0
     11465 MEMB     86       POPS     H7R      HAL2     0.900000E-01   1.00800           0
     11466 MEMB     86       POPS     H7S      HAL2     0.900000E-01   1.00800           0
     11467 MEMB     86       POPS     C28      CTL2    -0.180000       12.0110           0
     11468 MEMB     86       POPS     H8R      HAL2     0.900000E-01   1.00800           0
     11469 MEMB     86       POPS     H8S      HAL2     0.900000E-01   1.00800           0
     11470 MEMB     86       POPS     C29      CEL1    -0.150000       12.0110           0
     11471 MEMB     86       POPS     H91      HEL1     0.150000       1.00800           0
     11472 MEMB     86       POPS     C210     CEL1    -0.150000       12.0110           0
     11473 MEMB     86       POPS     H101     HEL1     0.150000       1.00800           0
     11474 MEMB     86       POPS     C211     CTL2    -0.180000       12.0110           0
     11475 MEMB     86       POPS     H11R     HAL2     0.900000E-01   1.00800           0
     11476 MEMB     86       POPS     H11S     HAL2     0.900000E-01   1.00800           0
     11477 MEMB     86       POPS     C212     CTL2    -0.180000       12.0110           0
     11478 MEMB     86       POPS     H12R     HAL2     0.900000E-01   1.00800           0
     11479 MEMB     86       POPS     H12S     HAL2     0.900000E-01   1.00800           0
     11480 MEMB     86       POPS     C213     CTL2    -0.180000       12.0110           0
     11481 MEMB     86       POPS     H13R     HAL2     0.900000E-01   1.00800           0
     11482 MEMB     86       POPS     H13S     HAL2     0.900000E-01   1.00800           0
     11483 MEMB     86       POPS     C214     CTL2    -0.180000       12.0110           0
     11484 MEMB     86       POPS     H14R     HAL2     0.900000E-01   1.00800           0
     11485 MEMB     86       POPS     H14S     HAL2     0.900000E-01   1.00800           0
     11486 MEMB     86       POPS     C215     CTL2    -0.180000       12.0110           0
     11487 MEMB     86       POPS     H15R     HAL2     0.900000E-01   1.00800           0
     11488 MEMB     86       POPS     H15S     HAL2     0.900000E-01   1.00800           0
     11489 MEMB     86       POPS     C216     CTL2    -0.180000       12.0110           0
     11490 MEMB     86       POPS     H16R     HAL2     0.900000E-01   1.00800           0
     11491 MEMB     86       POPS     H16S     HAL2     0.900000E-01   1.00800           0
     11492 MEMB     86       POPS     C217     CTL2    -0.180000       12.0110           0
     11493 MEMB     86       POPS     H17R     HAL2     0.900000E-01   1.00800           0
     11494 MEMB     86       POPS     H17S     HAL2     0.900000E-01   1.00800           0
     11495 MEMB     86       POPS     C218     CTL3    -0.270000       12.0110           0
     11496 MEMB     86       POPS     H18R     HAL3     0.900000E-01   1.00800           0
     11497 MEMB     86       POPS     H18S     HAL3     0.900000E-01   1.00800           0
     11498 MEMB     86       POPS     H18T     HAL3     0.900000E-01   1.00800           0
     11499 MEMB     86       POPS     C33      CTL2    -0.180000       12.0110           0
     11500 MEMB     86       POPS     H3X      HAL2     0.900000E-01   1.00800           0
     11501 MEMB     86       POPS     H3Y      HAL2     0.900000E-01   1.00800           0
     11502 MEMB     86       POPS     C34      CTL2    -0.180000       12.0110           0
     11503 MEMB     86       POPS     H4X      HAL2     0.900000E-01   1.00800           0
     11504 MEMB     86       POPS     H4Y      HAL2     0.900000E-01   1.00800           0
     11505 MEMB     86       POPS     C35      CTL2    -0.180000       12.0110           0
     11506 MEMB     86       POPS     H5X      HAL2     0.900000E-01   1.00800           0
     11507 MEMB     86       POPS     H5Y      HAL2     0.900000E-01   1.00800           0
     11508 MEMB     86       POPS     C36      CTL2    -0.180000       12.0110           0
     11509 MEMB     86       POPS     H6X      HAL2     0.900000E-01   1.00800           0
     11510 MEMB     86       POPS     H6Y      HAL2     0.900000E-01   1.00800           0
     11511 MEMB     86       POPS     C37      CTL2    -0.180000       12.0110           0
     11512 MEMB     86       POPS     H7X      HAL2     0.900000E-01   1.00800           0
     11513 MEMB     86       POPS     H7Y      HAL2     0.900000E-01   1.00800           0
     11514 MEMB     86       POPS     C38      CTL2    -0.180000       12.0110           0
     11515 MEMB     86       POPS     H8X      HAL2     0.900000E-01   1.00800           0
     11516 MEMB     86       POPS     H8Y      HAL2     0.900000E-01   1.00800           0
     11517 MEMB     86       POPS     C39      CTL2    -0.180000       12.0110           0
     11518 MEMB     86       POPS     H9X      HAL2     0.900000E-01   1.00800           0
     11519 MEMB     86       POPS     H9Y      HAL2     0.900000E-01   1.00800           0
     11520 MEMB     86       POPS     C310     CTL2    -0.180000       12.0110           0
     11521 MEMB     86       POPS     H10X     HAL2     0.900000E-01   1.00800           0
     11522 MEMB     86       POPS     H10Y     HAL2     0.900000E-01   1.00800           0
     11523 MEMB     86       POPS     C311     CTL2    -0.180000       12.0110           0
     11524 MEMB     86       POPS     H11X     HAL2     0.900000E-01   1.00800           0
     11525 MEMB     86       POPS     H11Y     HAL2     0.900000E-01   1.00800           0
     11526 MEMB     86       POPS     C312     CTL2    -0.180000       12.0110           0
     11527 MEMB     86       POPS     H12X     HAL2     0.900000E-01   1.00800           0
     11528 MEMB     86       POPS     H12Y     HAL2     0.900000E-01   1.00800           0
     11529 MEMB     86       POPS     C313     CTL2    -0.180000       12.0110           0
     11530 MEMB     86       POPS     H13X     HAL2     0.900000E-01   1.00800           0
     11531 MEMB     86       POPS     H13Y     HAL2     0.900000E-01   1.00800           0
     11532 MEMB     86       POPS     C314     CTL2    -0.180000       12.0110           0
     11533 MEMB     86       POPS     H14X     HAL2     0.900000E-01   1.00800           0
     11534 MEMB     86       POPS     H14Y     HAL2     0.900000E-01   1.00800           0
     11535 MEMB     86       POPS     C315     CTL2    -0.180000       12.0110           0
     11536 MEMB     86       POPS     H15X     HAL2     0.900000E-01   1.00800           0
     11537 MEMB     86       POPS     H15Y     HAL2     0.900000E-01   1.00800           0
     11538 MEMB     86       POPS     C316     CTL3    -0.270000       12.0110           0
     11539 MEMB     86       POPS     H16X     HAL3     0.900000E-01   1.00800           0
     11540 MEMB     86       POPS     H16Y     HAL3     0.900000E-01   1.00800           0
     11541 MEMB     86       POPS     H16Z     HAL3     0.900000E-01   1.00800           0
     11542 MEMB     87       POPC     N        NTL     -0.600000       14.0070           0
     11543 MEMB     87       POPC     C12      CTL2    -0.100000       12.0110           0
     11544 MEMB     87       POPC     H12A     HL       0.250000       1.00800           0
     11545 MEMB     87       POPC     H12B     HL       0.250000       1.00800           0
     11546 MEMB     87       POPC     C13      CTL5    -0.350000       12.0110           0
     11547 MEMB     87       POPC     H13A     HL       0.250000       1.00800           0
     11548 MEMB     87       POPC     H13B     HL       0.250000       1.00800           0
     11549 MEMB     87       POPC     H13C     HL       0.250000       1.00800           0
     11550 MEMB     87       POPC     C14      CTL5    -0.350000       12.0110           0
     11551 MEMB     87       POPC     H14A     HL       0.250000       1.00800           0
     11552 MEMB     87       POPC     H14B     HL       0.250000       1.00800           0
     11553 MEMB     87       POPC     H14C     HL       0.250000       1.00800           0
     11554 MEMB     87       POPC     C15      CTL5    -0.350000       12.0110           0
     11555 MEMB     87       POPC     H15A     HL       0.250000       1.00800           0
     11556 MEMB     87       POPC     H15B     HL       0.250000       1.00800           0
     11557 MEMB     87       POPC     H15C     HL       0.250000       1.00800           0
     11558 MEMB     87       POPC     C11      CTL2    -0.800000E-01   12.0110           0
     11559 MEMB     87       POPC     H11A     HAL2     0.900000E-01   1.00800           0
     11560 MEMB     87       POPC     H11B     HAL2     0.900000E-01   1.00800           0
     11561 MEMB     87       POPC     P        PL       1.500000       30.9740           0
     11562 MEMB     87       POPC     O13      O2L     -0.780000       15.9994           0
     11563 MEMB     87       POPC     O14      O2L     -0.780000       15.9994           0
     11564 MEMB     87       POPC     O12      OSLP    -0.570000       15.9994           0
     11565 MEMB     87       POPC     O11      OSLP    -0.570000       15.9994           0
     11566 MEMB     87       POPC     C1       CTL2    -0.800000E-01   12.0110           0
     11567 MEMB     87       POPC     HA       HAL2     0.900000E-01   1.00800           0
     11568 MEMB     87       POPC     HB       HAL2     0.900000E-01   1.00800           0
     11569 MEMB     87       POPC     C2       CTL1     0.170000       12.0110           0
     11570 MEMB     87       POPC     HS       HAL1     0.900000E-01   1.00800           0
     11571 MEMB     87       POPC     O21      OSL     -0.490000       15.9994           0
     11572 MEMB     87       POPC     C21      CL       0.900000       12.0110           0
     11573 MEMB     87       POPC     O22      OBL     -0.630000       15.9994           0
     11574 MEMB     87       POPC     C22      CTL2    -0.220000       12.0110           0
     11575 MEMB     87       POPC     H2R      HAL2     0.900000E-01   1.00800           0
     11576 MEMB     87       POPC     H2S      HAL2     0.900000E-01   1.00800           0
     11577 MEMB     87       POPC     C3       CTL2     0.800000E-01   12.0110           0
     11578 MEMB     87       POPC     HX       HAL2     0.900000E-01   1.00800           0
     11579 MEMB     87       POPC     HY       HAL2     0.900000E-01   1.00800           0
     11580 MEMB     87       POPC     O31      OSL     -0.490000       15.9994           0
     11581 MEMB     87       POPC     C31      CL       0.900000       12.0110           0
     11582 MEMB     87       POPC     O32      OBL     -0.630000       15.9994           0
     11583 MEMB     87       POPC     C32      CTL2    -0.220000       12.0110           0
     11584 MEMB     87       POPC     H2X      HAL2     0.900000E-01   1.00800           0
     11585 MEMB     87       POPC     H2Y      HAL2     0.900000E-01   1.00800           0
     11586 MEMB     87       POPC     C23      CTL2    -0.180000       12.0110           0
     11587 MEMB     87       POPC     H3R      HAL2     0.900000E-01   1.00800           0
     11588 MEMB     87       POPC     H3S      HAL2     0.900000E-01   1.00800           0
     11589 MEMB     87       POPC     C24      CTL2    -0.180000       12.0110           0
     11590 MEMB     87       POPC     H4R      HAL2     0.900000E-01   1.00800           0
     11591 MEMB     87       POPC     H4S      HAL2     0.900000E-01   1.00800           0
     11592 MEMB     87       POPC     C25      CTL2    -0.180000       12.0110           0
     11593 MEMB     87       POPC     H5R      HAL2     0.900000E-01   1.00800           0
     11594 MEMB     87       POPC     H5S      HAL2     0.900000E-01   1.00800           0
     11595 MEMB     87       POPC     C26      CTL2    -0.180000       12.0110           0
     11596 MEMB     87       POPC     H6R      HAL2     0.900000E-01   1.00800           0
     11597 MEMB     87       POPC     H6S      HAL2     0.900000E-01   1.00800           0
     11598 MEMB     87       POPC     C27      CTL2    -0.180000       12.0110           0
     11599 MEMB     87       POPC     H7R      HAL2     0.900000E-01   1.00800           0
     11600 MEMB     87       POPC     H7S      HAL2     0.900000E-01   1.00800           0
     11601 MEMB     87       POPC     C28      CTL2    -0.180000       12.0110           0
     11602 MEMB     87       POPC     H8R      HAL2     0.900000E-01   1.00800           0
     11603 MEMB     87       POPC     H8S      HAL2     0.900000E-01   1.00800           0
     11604 MEMB     87       POPC     C29      CEL1    -0.150000       12.0110           0
     11605 MEMB     87       POPC     H91      HEL1     0.150000       1.00800           0
     11606 MEMB     87       POPC     C210     CEL1    -0.150000       12.0110           0
     11607 MEMB     87       POPC     H101     HEL1     0.150000       1.00800           0
     11608 MEMB     87       POPC     C211     CTL2    -0.180000       12.0110           0
     11609 MEMB     87       POPC     H11R     HAL2     0.900000E-01   1.00800           0
     11610 MEMB     87       POPC     H11S     HAL2     0.900000E-01   1.00800           0
     11611 MEMB     87       POPC     C212     CTL2    -0.180000       12.0110           0
     11612 MEMB     87       POPC     H12R     HAL2     0.900000E-01   1.00800           0
     11613 MEMB     87       POPC     H12S     HAL2     0.900000E-01   1.00800           0
     11614 MEMB     87       POPC     C213     CTL2    -0.180000       12.0110           0
     11615 MEMB     87       POPC     H13R     HAL2     0.900000E-01   1.00800           0
     11616 MEMB     87       POPC     H13S     HAL2     0.900000E-01   1.00800           0
     11617 MEMB     87       POPC     C214     CTL2    -0.180000       12.0110           0
     11618 MEMB     87       POPC     H14R     HAL2     0.900000E-01   1.00800           0
     11619 MEMB     87       POPC     H14S     HAL2     0.900000E-01   1.00800           0
     11620 MEMB     87       POPC     C215     CTL2    -0.180000       12.0110           0
     11621 MEMB     87       POPC     H15R     HAL2     0.900000E-01   1.00800           0
     11622 MEMB     87       POPC     H15S     HAL2     0.900000E-01   1.00800           0
     11623 MEMB     87       POPC     C216     CTL2    -0.180000       12.0110           0
     11624 MEMB     87       POPC     H16R     HAL2     0.900000E-01   1.00800           0
     11625 MEMB     87       POPC     H16S     HAL2     0.900000E-01   1.00800           0
     11626 MEMB     87       POPC     C217     CTL2    -0.180000       12.0110           0
     11627 MEMB     87       POPC     H17R     HAL2     0.900000E-01   1.00800           0
     11628 MEMB     87       POPC     H17S     HAL2     0.900000E-01   1.00800           0
     11629 MEMB     87       POPC     C218     CTL3    -0.270000       12.0110           0
     11630 MEMB     87       POPC     H18R     HAL3     0.900000E-01   1.00800           0
     11631 MEMB     87       POPC     H18S     HAL3     0.900000E-01   1.00800           0
     11632 MEMB     87       POPC     H18T     HAL3     0.900000E-01   1.00800           0
     11633 MEMB     87       POPC     C33      CTL2    -0.180000       12.0110           0
     11634 MEMB     87       POPC     H3X      HAL2     0.900000E-01   1.00800           0
     11635 MEMB     87       POPC     H3Y      HAL2     0.900000E-01   1.00800           0
     11636 MEMB     87       POPC     C34      CTL2    -0.180000       12.0110           0
     11637 MEMB     87       POPC     H4X      HAL2     0.900000E-01   1.00800           0
     11638 MEMB     87       POPC     H4Y      HAL2     0.900000E-01   1.00800           0
     11639 MEMB     87       POPC     C35      CTL2    -0.180000       12.0110           0
     11640 MEMB     87       POPC     H5X      HAL2     0.900000E-01   1.00800           0
     11641 MEMB     87       POPC     H5Y      HAL2     0.900000E-01   1.00800           0
     11642 MEMB     87       POPC     C36      CTL2    -0.180000       12.0110           0
     11643 MEMB     87       POPC     H6X      HAL2     0.900000E-01   1.00800           0
     11644 MEMB     87       POPC     H6Y      HAL2     0.900000E-01   1.00800           0
     11645 MEMB     87       POPC     C37      CTL2    -0.180000       12.0110           0
     11646 MEMB     87       POPC     H7X      HAL2     0.900000E-01   1.00800           0
     11647 MEMB     87       POPC     H7Y      HAL2     0.900000E-01   1.00800           0
     11648 MEMB     87       POPC     C38      CTL2    -0.180000       12.0110           0
     11649 MEMB     87       POPC     H8X      HAL2     0.900000E-01   1.00800           0
     11650 MEMB     87       POPC     H8Y      HAL2     0.900000E-01   1.00800           0
     11651 MEMB     87       POPC     C39      CTL2    -0.180000       12.0110           0
     11652 MEMB     87       POPC     H9X      HAL2     0.900000E-01   1.00800           0
     11653 MEMB     87       POPC     H9Y      HAL2     0.900000E-01   1.00800           0
     11654 MEMB     87       POPC     C310     CTL2    -0.180000       12.0110           0
     11655 MEMB     87       POPC     H10X     HAL2     0.900000E-01   1.00800           0
     11656 MEMB     87       POPC     H10Y     HAL2     0.900000E-01   1.00800           0
     11657 MEMB     87       POPC     C311     CTL2    -0.180000       12.0110           0
     11658 MEMB     87       POPC     H11X     HAL2     0.900000E-01   1.00800           0
     11659 MEMB     87       POPC     H11Y     HAL2     0.900000E-01   1.00800           0
     11660 MEMB     87       POPC     C312     CTL2    -0.180000       12.0110           0
     11661 MEMB     87       POPC     H12X     HAL2     0.900000E-01   1.00800           0
     11662 MEMB     87       POPC     H12Y     HAL2     0.900000E-01   1.00800           0
     11663 MEMB     87       POPC     C313     CTL2    -0.180000       12.0110           0
     11664 MEMB     87       POPC     H13X     HAL2     0.900000E-01   1.00800           0
     11665 MEMB     87       POPC     H13Y     HAL2     0.900000E-01   1.00800           0
     11666 MEMB     87       POPC     C314     CTL2    -0.180000       12.0110           0
     11667 MEMB     87       POPC     H14X     HAL2     0.900000E-01   1.00800           0
     11668 MEMB     87       POPC     H14Y     HAL2     0.900000E-01   1.00800           0
     11669 MEMB     87       POPC     C315     CTL2    -0.180000       12.0110           0
     11670 MEMB     87       POPC     H15X     HAL2     0.900000E-01   1.00800           0
     11671 MEMB     87       POPC     H15Y     HAL2     0.900000E-01   1.00800           0
     11672 MEMB     87       POPC     C316     CTL3    -0.270000       12.0110           0
     11673 MEMB     87       POPC     H16X     HAL3     0.900000E-01   1.00800           0
     11674 MEMB     87       POPC     H16Y     HAL3     0.900000E-01   1.00800           0
     11675 MEMB     87       POPC     H16Z     HAL3     0.900000E-01   1.00800           0
     11676 MEMB     88       POPC     N        NTL     -0.600000       14.0070           0
     11677 MEMB     88       POPC     C12      CTL2    -0.100000       12.0110           0
     11678 MEMB     88       POPC     H12A     HL       0.250000       1.00800           0
     11679 MEMB     88       POPC     H12B     HL       0.250000       1.00800           0
     11680 MEMB     88       POPC     C13      CTL5    -0.350000       12.0110           0
     11681 MEMB     88       POPC     H13A     HL       0.250000       1.00800           0
     11682 MEMB     88       POPC     H13B     HL       0.250000       1.00800           0
     11683 MEMB     88       POPC     H13C     HL       0.250000       1.00800           0
     11684 MEMB     88       POPC     C14      CTL5    -0.350000       12.0110           0
     11685 MEMB     88       POPC     H14A     HL       0.250000       1.00800           0
     11686 MEMB     88       POPC     H14B     HL       0.250000       1.00800           0
     11687 MEMB     88       POPC     H14C     HL       0.250000       1.00800           0
     11688 MEMB     88       POPC     C15      CTL5    -0.350000       12.0110           0
     11689 MEMB     88       POPC     H15A     HL       0.250000       1.00800           0
     11690 MEMB     88       POPC     H15B     HL       0.250000       1.00800           0
     11691 MEMB     88       POPC     H15C     HL       0.250000       1.00800           0
     11692 MEMB     88       POPC     C11      CTL2    -0.800000E-01   12.0110           0
     11693 MEMB     88       POPC     H11A     HAL2     0.900000E-01   1.00800           0
     11694 MEMB     88       POPC     H11B     HAL2     0.900000E-01   1.00800           0
     11695 MEMB     88       POPC     P        PL       1.500000       30.9740           0
     11696 MEMB     88       POPC     O13      O2L     -0.780000       15.9994           0
     11697 MEMB     88       POPC     O14      O2L     -0.780000       15.9994           0
     11698 MEMB     88       POPC     O12      OSLP    -0.570000       15.9994           0
     11699 MEMB     88       POPC     O11      OSLP    -0.570000       15.9994           0
     11700 MEMB     88       POPC     C1       CTL2    -0.800000E-01   12.0110           0
     11701 MEMB     88       POPC     HA       HAL2     0.900000E-01   1.00800           0
     11702 MEMB     88       POPC     HB       HAL2     0.900000E-01   1.00800           0
     11703 MEMB     88       POPC     C2       CTL1     0.170000       12.0110           0
     11704 MEMB     88       POPC     HS       HAL1     0.900000E-01   1.00800           0
     11705 MEMB     88       POPC     O21      OSL     -0.490000       15.9994           0
     11706 MEMB     88       POPC     C21      CL       0.900000       12.0110           0
     11707 MEMB     88       POPC     O22      OBL     -0.630000       15.9994           0
     11708 MEMB     88       POPC     C22      CTL2    -0.220000       12.0110           0
     11709 MEMB     88       POPC     H2R      HAL2     0.900000E-01   1.00800           0
     11710 MEMB     88       POPC     H2S      HAL2     0.900000E-01   1.00800           0
     11711 MEMB     88       POPC     C3       CTL2     0.800000E-01   12.0110           0
     11712 MEMB     88       POPC     HX       HAL2     0.900000E-01   1.00800           0
     11713 MEMB     88       POPC     HY       HAL2     0.900000E-01   1.00800           0
     11714 MEMB     88       POPC     O31      OSL     -0.490000       15.9994           0
     11715 MEMB     88       POPC     C31      CL       0.900000       12.0110           0
     11716 MEMB     88       POPC     O32      OBL     -0.630000       15.9994           0
     11717 MEMB     88       POPC     C32      CTL2    -0.220000       12.0110           0
     11718 MEMB     88       POPC     H2X      HAL2     0.900000E-01   1.00800           0
     11719 MEMB     88       POPC     H2Y      HAL2     0.900000E-01   1.00800           0
     11720 MEMB     88       POPC     C23      CTL2    -0.180000       12.0110           0
     11721 MEMB     88       POPC     H3R      HAL2     0.900000E-01   1.00800           0
     11722 MEMB     88       POPC     H3S      HAL2     0.900000E-01   1.00800           0
     11723 MEMB     88       POPC     C24      CTL2    -0.180000       12.0110           0
     11724 MEMB     88       POPC     H4R      HAL2     0.900000E-01   1.00800           0
     11725 MEMB     88       POPC     H4S      HAL2     0.900000E-01   1.00800           0
     11726 MEMB     88       POPC     C25      CTL2    -0.180000       12.0110           0
     11727 MEMB     88       POPC     H5R      HAL2     0.900000E-01   1.00800           0
     11728 MEMB     88       POPC     H5S      HAL2     0.900000E-01   1.00800           0
     11729 MEMB     88       POPC     C26      CTL2    -0.180000       12.0110           0
     11730 MEMB     88       POPC     H6R      HAL2     0.900000E-01   1.00800           0
     11731 MEMB     88       POPC     H6S      HAL2     0.900000E-01   1.00800           0
     11732 MEMB     88       POPC     C27      CTL2    -0.180000       12.0110           0
     11733 MEMB     88       POPC     H7R      HAL2     0.900000E-01   1.00800           0
     11734 MEMB     88       POPC     H7S      HAL2     0.900000E-01   1.00800           0
     11735 MEMB     88       POPC     C28      CTL2    -0.180000       12.0110           0
     11736 MEMB     88       POPC     H8R      HAL2     0.900000E-01   1.00800           0
     11737 MEMB     88       POPC     H8S      HAL2     0.900000E-01   1.00800           0
     11738 MEMB     88       POPC     C29      CEL1    -0.150000       12.0110           0
     11739 MEMB     88       POPC     H91      HEL1     0.150000       1.00800           0
     11740 MEMB     88       POPC     C210     CEL1    -0.150000       12.0110           0
     11741 MEMB     88       POPC     H101     HEL1     0.150000       1.00800           0
     11742 MEMB     88       POPC     C211     CTL2    -0.180000       12.0110           0
     11743 MEMB     88       POPC     H11R     HAL2     0.900000E-01   1.00800           0
     11744 MEMB     88       POPC     H11S     HAL2     0.900000E-01   1.00800           0
     11745 MEMB     88       POPC     C212     CTL2    -0.180000       12.0110           0
     11746 MEMB     88       POPC     H12R     HAL2     0.900000E-01   1.00800           0
     11747 MEMB     88       POPC     H12S     HAL2     0.900000E-01   1.00800           0
     11748 MEMB     88       POPC     C213     CTL2    -0.180000       12.0110           0
     11749 MEMB     88       POPC     H13R     HAL2     0.900000E-01   1.00800           0
     11750 MEMB     88       POPC     H13S     HAL2     0.900000E-01   1.00800           0
     11751 MEMB     88       POPC     C214     CTL2    -0.180000       12.0110           0
     11752 MEMB     88       POPC     H14R     HAL2     0.900000E-01   1.00800           0
     11753 MEMB     88       POPC     H14S     HAL2     0.900000E-01   1.00800           0
     11754 MEMB     88       POPC     C215     CTL2    -0.180000       12.0110           0
     11755 MEMB     88       POPC     H15R     HAL2     0.900000E-01   1.00800           0
     11756 MEMB     88       POPC     H15S     HAL2     0.900000E-01   1.00800           0
     11757 MEMB     88       POPC     C216     CTL2    -0.180000       12.0110           0
     11758 MEMB     88       POPC     H16R     HAL2     0.900000E-01   1.00800           0
     11759 MEMB     88       POPC     H16S     HAL2     0.900000E-01   1.00800           0
     11760 MEMB     88       POPC     C217     CTL2    -0.180000       12.0110           0
     11761 MEMB     88       POPC     H17R     HAL2     0.900000E-01   1.00800           0
     11762 MEMB     88       POPC     H17S     HAL2     0.900000E-01   1.00800           0
     11763 MEMB     88       POPC     C218     CTL3    -0.270000       12.0110           0
     11764 MEMB     88       POPC     H18R     HAL3     0.900000E-01   1.00800           0
     11765 MEMB     88       POPC     H18S     HAL3     0.900000E-01   1.00800           0
     11766 MEMB     88       POPC     H18T     HAL3     0.900000E-01   1.00800           0
     11767 MEMB     88       POPC     C33      CTL2    -0.180000       12.0110           0
     11768 MEMB     88       POPC     H3X      HAL2     0.900000E-01   1.00800           0
     11769 MEMB     88       POPC     H3Y      HAL2     0.900000E-01   1.00800           0
     11770 MEMB     88       POPC     C34      CTL2    -0.180000       12.0110           0
     11771 MEMB     88       POPC     H4X      HAL2     0.900000E-01   1.00800           0
     11772 MEMB     88       POPC     H4Y      HAL2     0.900000E-01   1.00800           0
     11773 MEMB     88       POPC     C35      CTL2    -0.180000       12.0110           0
     11774 MEMB     88       POPC     H5X      HAL2     0.900000E-01   1.00800           0
     11775 MEMB     88       POPC     H5Y      HAL2     0.900000E-01   1.00800           0
     11776 MEMB     88       POPC     C36      CTL2    -0.180000       12.0110           0
     11777 MEMB     88       POPC     H6X      HAL2     0.900000E-01   1.00800           0
     11778 MEMB     88       POPC     H6Y      HAL2     0.900000E-01   1.00800           0
     11779 MEMB     88       POPC     C37      CTL2    -0.180000       12.0110           0
     11780 MEMB     88       POPC     H7X      HAL2     0.900000E-01   1.00800           0
     11781 MEMB     88       POPC     H7Y      HAL2     0.900000E-01   1.00800           0
     11782 MEMB     88       POPC     C38      CTL2    -0.180000       12.0110           0
     11783 MEMB     88       POPC     H8X      HAL2     0.900000E-01   1.00800           0
     11784 MEMB     88       POPC     H8Y      HAL2     0.900000E-01   1.00800           0
     11785 MEMB     88       POPC     C39      CTL2    -0.180000       12.0110           0
     11786 MEMB     88       POPC     H9X      HAL2     0.900000E-01   1.00800           0
     11787 MEMB     88       POPC     H9Y      HAL2     0.900000E-01   1.00800           0
     11788 MEMB     88       POPC     C310     CTL2    -0.180000       12.0110           0
     11789 MEMB     88       POPC     H10X     HAL2     0.900000E-01   1.00800           0
     11790 MEMB     88       POPC     H10Y     HAL2     0.900000E-01   1.00800           0
     11791 MEMB     88       POPC     C311     CTL2    -0.180000       12.0110           0
     11792 MEMB     88       POPC     H11X     HAL2     0.900000E-01   1.00800           0
     11793 MEMB     88       POPC     H11Y     HAL2     0.900000E-01   1.00800           0
     11794 MEMB     88       POPC     C312     CTL2    -0.180000       12.0110           0
     11795 MEMB     88       POPC     H12X     HAL2     0.900000E-01   1.00800           0
     11796 MEMB     88       POPC     H12Y     HAL2     0.900000E-01   1.00800           0
     11797 MEMB     88       POPC     C313     CTL2    -0.180000       12.0110           0
     11798 MEMB     88       POPC     H13X     HAL2     0.900000E-01   1.00800           0
     11799 MEMB     88       POPC     H13Y     HAL2     0.900000E-01   1.00800           0
     11800 MEMB     88       POPC     C314     CTL2    -0.180000       12.0110           0
     11801 MEMB     88       POPC     H14X     HAL2     0.900000E-01   1.00800           0
     11802 MEMB     88       POPC     H14Y     HAL2     0.900000E-01   1.00800           0
     11803 MEMB     88       POPC     C315     CTL2    -0.180000       12.0110           0
     11804 MEMB     88       POPC     H15X     HAL2     0.900000E-01   1.00800           0
     11805 MEMB     88       POPC     H15Y     HAL2     0.900000E-01   1.00800           0
     11806 MEMB     88       POPC     C316     CTL3    -0.270000       12.0110           0
     11807 MEMB     88       POPC     H16X     HAL3     0.900000E-01   1.00800           0
     11808 MEMB     88       POPC     H16Y     HAL3     0.900000E-01   1.00800           0
     11809 MEMB     88       POPC     H16Z     HAL3     0.900000E-01   1.00800           0
     11810 MEMB     89       POPC     N        NTL     -0.600000       14.0070           0
     11811 MEMB     89       POPC     C12      CTL2    -0.100000       12.0110           0
     11812 MEMB     89       POPC     H12A     HL       0.250000       1.00800           0
     11813 MEMB     89       POPC     H12B     HL       0.250000       1.00800           0
     11814 MEMB     89       POPC     C13      CTL5    -0.350000       12.0110           0
     11815 MEMB     89       POPC     H13A     HL       0.250000       1.00800           0
     11816 MEMB     89       POPC     H13B     HL       0.250000       1.00800           0
     11817 MEMB     89       POPC     H13C     HL       0.250000       1.00800           0
     11818 MEMB     89       POPC     C14      CTL5    -0.350000       12.0110           0
     11819 MEMB     89       POPC     H14A     HL       0.250000       1.00800           0
     11820 MEMB     89       POPC     H14B     HL       0.250000       1.00800           0
     11821 MEMB     89       POPC     H14C     HL       0.250000       1.00800           0
     11822 MEMB     89       POPC     C15      CTL5    -0.350000       12.0110           0
     11823 MEMB     89       POPC     H15A     HL       0.250000       1.00800           0
     11824 MEMB     89       POPC     H15B     HL       0.250000       1.00800           0
     11825 MEMB     89       POPC     H15C     HL       0.250000       1.00800           0
     11826 MEMB     89       POPC     C11      CTL2    -0.800000E-01   12.0110           0
     11827 MEMB     89       POPC     H11A     HAL2     0.900000E-01   1.00800           0
     11828 MEMB     89       POPC     H11B     HAL2     0.900000E-01   1.00800           0
     11829 MEMB     89       POPC     P        PL       1.500000       30.9740           0
     11830 MEMB     89       POPC     O13      O2L     -0.780000       15.9994           0
     11831 MEMB     89       POPC     O14      O2L     -0.780000       15.9994           0
     11832 MEMB     89       POPC     O12      OSLP    -0.570000       15.9994           0
     11833 MEMB     89       POPC     O11      OSLP    -0.570000       15.9994           0
     11834 MEMB     89       POPC     C1       CTL2    -0.800000E-01   12.0110           0
     11835 MEMB     89       POPC     HA       HAL2     0.900000E-01   1.00800           0
     11836 MEMB     89       POPC     HB       HAL2     0.900000E-01   1.00800           0
     11837 MEMB     89       POPC     C2       CTL1     0.170000       12.0110           0
     11838 MEMB     89       POPC     HS       HAL1     0.900000E-01   1.00800           0
     11839 MEMB     89       POPC     O21      OSL     -0.490000       15.9994           0
     11840 MEMB     89       POPC     C21      CL       0.900000       12.0110           0
     11841 MEMB     89       POPC     O22      OBL     -0.630000       15.9994           0
     11842 MEMB     89       POPC     C22      CTL2    -0.220000       12.0110           0
     11843 MEMB     89       POPC     H2R      HAL2     0.900000E-01   1.00800           0
     11844 MEMB     89       POPC     H2S      HAL2     0.900000E-01   1.00800           0
     11845 MEMB     89       POPC     C3       CTL2     0.800000E-01   12.0110           0
     11846 MEMB     89       POPC     HX       HAL2     0.900000E-01   1.00800           0
     11847 MEMB     89       POPC     HY       HAL2     0.900000E-01   1.00800           0
     11848 MEMB     89       POPC     O31      OSL     -0.490000       15.9994           0
     11849 MEMB     89       POPC     C31      CL       0.900000       12.0110           0
     11850 MEMB     89       POPC     O32      OBL     -0.630000       15.9994           0
     11851 MEMB     89       POPC     C32      CTL2    -0.220000       12.0110           0
     11852 MEMB     89       POPC     H2X      HAL2     0.900000E-01   1.00800           0
     11853 MEMB     89       POPC     H2Y      HAL2     0.900000E-01   1.00800           0
     11854 MEMB     89       POPC     C23      CTL2    -0.180000       12.0110           0
     11855 MEMB     89       POPC     H3R      HAL2     0.900000E-01   1.00800           0
     11856 MEMB     89       POPC     H3S      HAL2     0.900000E-01   1.00800           0
     11857 MEMB     89       POPC     C24      CTL2    -0.180000       12.0110           0
     11858 MEMB     89       POPC     H4R      HAL2     0.900000E-01   1.00800           0
     11859 MEMB     89       POPC     H4S      HAL2     0.900000E-01   1.00800           0
     11860 MEMB     89       POPC     C25      CTL2    -0.180000       12.0110           0
     11861 MEMB     89       POPC     H5R      HAL2     0.900000E-01   1.00800           0
     11862 MEMB     89       POPC     H5S      HAL2     0.900000E-01   1.00800           0
     11863 MEMB     89       POPC     C26      CTL2    -0.180000       12.0110           0
     11864 MEMB     89       POPC     H6R      HAL2     0.900000E-01   1.00800           0
     11865 MEMB     89       POPC     H6S      HAL2     0.900000E-01   1.00800           0
     11866 MEMB     89       POPC     C27      CTL2    -0.180000       12.0110           0
     11867 MEMB     89       POPC     H7R      HAL2     0.900000E-01   1.00800           0
     11868 MEMB     89       POPC     H7S      HAL2     0.900000E-01   1.00800           0
     11869 MEMB     89       POPC     C28      CTL2    -0.180000       12.0110           0
     11870 MEMB     89       POPC     H8R      HAL2     0.900000E-01   1.00800           0
     11871 MEMB     89       POPC     H8S      HAL2     0.900000E-01   1.00800           0
     11872 MEMB     89       POPC     C29      CEL1    -0.150000       12.0110           0
     11873 MEMB     89       POPC     H91      HEL1     0.150000       1.00800           0
     11874 MEMB     89       POPC     C210     CEL1    -0.150000       12.0110           0
     11875 MEMB     89       POPC     H101     HEL1     0.150000       1.00800           0
     11876 MEMB     89       POPC     C211     CTL2    -0.180000       12.0110           0
     11877 MEMB     89       POPC     H11R     HAL2     0.900000E-01   1.00800           0
     11878 MEMB     89       POPC     H11S     HAL2     0.900000E-01   1.00800           0
     11879 MEMB     89       POPC     C212     CTL2    -0.180000       12.0110           0
     11880 MEMB     89       POPC     H12R     HAL2     0.900000E-01   1.00800           0
     11881 MEMB     89       POPC     H12S     HAL2     0.900000E-01   1.00800           0
     11882 MEMB     89       POPC     C213     CTL2    -0.180000       12.0110           0
     11883 MEMB     89       POPC     H13R     HAL2     0.900000E-01   1.00800           0
     11884 MEMB     89       POPC     H13S     HAL2     0.900000E-01   1.00800           0
     11885 MEMB     89       POPC     C214     CTL2    -0.180000       12.0110           0
     11886 MEMB     89       POPC     H14R     HAL2     0.900000E-01   1.00800           0
     11887 MEMB     89       POPC     H14S     HAL2     0.900000E-01   1.00800           0
     11888 MEMB     89       POPC     C215     CTL2    -0.180000       12.0110           0
     11889 MEMB     89       POPC     H15R     HAL2     0.900000E-01   1.00800           0
     11890 MEMB     89       POPC     H15S     HAL2     0.900000E-01   1.00800           0
     11891 MEMB     89       POPC     C216     CTL2    -0.180000       12.0110           0
     11892 MEMB     89       POPC     H16R     HAL2     0.900000E-01   1.00800           0
     11893 MEMB     89       POPC     H16S     HAL2     0.900000E-01   1.00800           0
     11894 MEMB     89       POPC     C217     CTL2    -0.180000       12.0110           0
     11895 MEMB     89       POPC     H17R     HAL2     0.900000E-01   1.00800           0
     11896 MEMB     89       POPC     H17S     HAL2     0.900000E-01   1.00800           0
     11897 MEMB     89       POPC     C218     CTL3    -0.270000       12.0110           0
     11898 MEMB     89       POPC     H18R     HAL3     0.900000E-01   1.00800           0
     11899 MEMB     89       POPC     H18S     HAL3     0.900000E-01   1.00800           0
     11900 MEMB     89       POPC     H18T     HAL3     0.900000E-01   1.00800           0
     11901 MEMB     89       POPC     C33      CTL2    -0.180000       12.0110           0
     11902 MEMB     89       POPC     H3X      HAL2     0.900000E-01   1.00800           0
     11903 MEMB     89       POPC     H3Y      HAL2     0.900000E-01   1.00800           0
     11904 MEMB     89       POPC     C34      CTL2    -0.180000       12.0110           0
     11905 MEMB     89       POPC     H4X      HAL2     0.900000E-01   1.00800           0
     11906 MEMB     89       POPC     H4Y      HAL2     0.900000E-01   1.00800           0
     11907 MEMB     89       POPC     C35      CTL2    -0.180000       12.0110           0
     11908 MEMB     89       POPC     H5X      HAL2     0.900000E-01   1.00800           0
     11909 MEMB     89       POPC     H5Y      HAL2     0.900000E-01   1.00800           0
     11910 MEMB     89       POPC     C36      CTL2    -0.180000       12.0110           0
     11911 MEMB     89       POPC     H6X      HAL2     0.900000E-01   1.00800           0
     11912 MEMB     89       POPC     H6Y      HAL2     0.900000E-01   1.00800           0
     11913 MEMB     89       POPC     C37      CTL2    -0.180000       12.0110           0
     11914 MEMB     89       POPC     H7X      HAL2     0.900000E-01   1.00800           0
     11915 MEMB     89       POPC     H7Y      HAL2     0.900000E-01   1.00800           0
     11916 MEMB     89       POPC     C38      CTL2    -0.180000       12.0110           0
     11917 MEMB     89       POPC     H8X      HAL2     0.900000E-01   1.00800           0
     11918 MEMB     89       POPC     H8Y      HAL2     0.900000E-01   1.00800           0
     11919 MEMB     89       POPC     C39      CTL2    -0.180000       12.0110           0
     11920 MEMB     89       POPC     H9X      HAL2     0.900000E-01   1.00800           0
     11921 MEMB     89       POPC     H9Y      HAL2     0.900000E-01   1.00800           0
     11922 MEMB     89       POPC     C310     CTL2    -0.180000       12.0110           0
     11923 MEMB     89       POPC     H10X     HAL2     0.900000E-01   1.00800           0
     11924 MEMB     89       POPC     H10Y     HAL2     0.900000E-01   1.00800           0
     11925 MEMB     89       POPC     C311     CTL2    -0.180000       12.0110           0
     11926 MEMB     89       POPC     H11X     HAL2     0.900000E-01   1.00800           0
     11927 MEMB     89       POPC     H11Y     HAL2     0.900000E-01   1.00800           0
     11928 MEMB     89       POPC     C312     CTL2    -0.180000       12.0110           0
     11929 MEMB     89       POPC     H12X     HAL2     0.900000E-01   1.00800           0
     11930 MEMB     89       POPC     H12Y     HAL2     0.900000E-01   1.00800           0
     11931 MEMB     89       POPC     C313     CTL2    -0.180000       12.0110           0
     11932 MEMB     89       POPC     H13X     HAL2     0.900000E-01   1.00800           0
     11933 MEMB     89       POPC     H13Y     HAL2     0.900000E-01   1.00800           0
     11934 MEMB     89       POPC     C314     CTL2    -0.180000       12.0110           0
     11935 MEMB     89       POPC     H14X     HAL2     0.900000E-01   1.00800           0
     11936 MEMB     89       POPC     H14Y     HAL2     0.900000E-01   1.00800           0
     11937 MEMB     89       POPC     C315     CTL2    -0.180000       12.0110           0
     11938 MEMB     89       POPC     H15X     HAL2     0.900000E-01   1.00800           0
     11939 MEMB     89       POPC     H15Y     HAL2     0.900000E-01   1.00800           0
     11940 MEMB     89       POPC     C316     CTL3    -0.270000       12.0110           0
     11941 MEMB     89       POPC     H16X     HAL3     0.900000E-01   1.00800           0
     11942 MEMB     89       POPC     H16Y     HAL3     0.900000E-01   1.00800           0
     11943 MEMB     89       POPC     H16Z     HAL3     0.900000E-01   1.00800           0
     11944 MEMB     90       POPC     N        NTL     -0.600000       14.0070           0
     11945 MEMB     90       POPC     C12      CTL2    -0.100000       12.0110           0
     11946 MEMB     90       POPC     H12A     HL       0.250000       1.00800           0
     11947 MEMB     90       POPC     H12B     HL       0.250000       1.00800           0
     11948 MEMB     90       POPC     C13      CTL5    -0.350000       12.0110           0
     11949 MEMB     90       POPC     H13A     HL       0.250000       1.00800           0
     11950 MEMB     90       POPC     H13B     HL       0.250000       1.00800           0
     11951 MEMB     90       POPC     H13C     HL       0.250000       1.00800           0
     11952 MEMB     90       POPC     C14      CTL5    -0.350000       12.0110           0
     11953 MEMB     90       POPC     H14A     HL       0.250000       1.00800           0
     11954 MEMB     90       POPC     H14B     HL       0.250000       1.00800           0
     11955 MEMB     90       POPC     H14C     HL       0.250000       1.00800           0
     11956 MEMB     90       POPC     C15      CTL5    -0.350000       12.0110           0
     11957 MEMB     90       POPC     H15A     HL       0.250000       1.00800           0
     11958 MEMB     90       POPC     H15B     HL       0.250000       1.00800           0
     11959 MEMB     90       POPC     H15C     HL       0.250000       1.00800           0
     11960 MEMB     90       POPC     C11      CTL2    -0.800000E-01   12.0110           0
     11961 MEMB     90       POPC     H11A     HAL2     0.900000E-01   1.00800           0
     11962 MEMB     90       POPC     H11B     HAL2     0.900000E-01   1.00800           0
     11963 MEMB     90       POPC     P        PL       1.500000       30.9740           0
     11964 MEMB     90       POPC     O13      O2L     -0.780000       15.9994           0
     11965 MEMB     90       POPC     O14      O2L     -0.780000       15.9994           0
     11966 MEMB     90       POPC     O12      OSLP    -0.570000       15.9994           0
     11967 MEMB     90       POPC     O11      OSLP    -0.570000       15.9994           0
     11968 MEMB     90       POPC     C1       CTL2    -0.800000E-01   12.0110           0
     11969 MEMB     90       POPC     HA       HAL2     0.900000E-01   1.00800           0
     11970 MEMB     90       POPC     HB       HAL2     0.900000E-01   1.00800           0
     11971 MEMB     90       POPC     C2       CTL1     0.170000       12.0110           0
     11972 MEMB     90       POPC     HS       HAL1     0.900000E-01   1.00800           0
     11973 MEMB     90       POPC     O21      OSL     -0.490000       15.9994           0
     11974 MEMB     90       POPC     C21      CL       0.900000       12.0110           0
     11975 MEMB     90       POPC     O22      OBL     -0.630000       15.9994           0
     11976 MEMB     90       POPC     C22      CTL2    -0.220000       12.0110           0
     11977 MEMB     90       POPC     H2R      HAL2     0.900000E-01   1.00800           0
     11978 MEMB     90       POPC     H2S      HAL2     0.900000E-01   1.00800           0
     11979 MEMB     90       POPC     C3       CTL2     0.800000E-01   12.0110           0
     11980 MEMB     90       POPC     HX       HAL2     0.900000E-01   1.00800           0
     11981 MEMB     90       POPC     HY       HAL2     0.900000E-01   1.00800           0
     11982 MEMB     90       POPC     O31      OSL     -0.490000       15.9994           0
     11983 MEMB     90       POPC     C31      CL       0.900000       12.0110           0
     11984 MEMB     90       POPC     O32      OBL     -0.630000       15.9994           0
     11985 MEMB     90       POPC     C32      CTL2    -0.220000       12.0110           0
     11986 MEMB     90       POPC     H2X      HAL2     0.900000E-01   1.00800           0
     11987 MEMB     90       POPC     H2Y      HAL2     0.900000E-01   1.00800           0
     11988 MEMB     90       POPC     C23      CTL2    -0.180000       12.0110           0
     11989 MEMB     90       POPC     H3R      HAL2     0.900000E-01   1.00800           0
     11990 MEMB     90       POPC     H3S      HAL2     0.900000E-01   1.00800           0
     11991 MEMB     90       POPC     C24      CTL2    -0.180000       12.0110           0
     11992 MEMB     90       POPC     H4R      HAL2     0.900000E-01   1.00800           0
     11993 MEMB     90       POPC     H4S      HAL2     0.900000E-01   1.00800           0
     11994 MEMB     90       POPC     C25      CTL2    -0.180000       12.0110           0
     11995 MEMB     90       POPC     H5R      HAL2     0.900000E-01   1.00800           0
     11996 MEMB     90       POPC     H5S      HAL2     0.900000E-01   1.00800           0
     11997 MEMB     90       POPC     C26      CTL2    -0.180000       12.0110           0
     11998 MEMB     90       POPC     H6R      HAL2     0.900000E-01   1.00800           0
     11999 MEMB     90       POPC     H6S      HAL2     0.900000E-01   1.00800           0
     12000 MEMB     90       POPC     C27      CTL2    -0.180000       12.0110           0
     12001 MEMB     90       POPC     H7R      HAL2     0.900000E-01   1.00800           0
     12002 MEMB     90       POPC     H7S      HAL2     0.900000E-01   1.00800           0
     12003 MEMB     90       POPC     C28      CTL2    -0.180000       12.0110           0
     12004 MEMB     90       POPC     H8R      HAL2     0.900000E-01   1.00800           0
     12005 MEMB     90       POPC     H8S      HAL2     0.900000E-01   1.00800           0
     12006 MEMB     90       POPC     C29      CEL1    -0.150000       12.0110           0
     12007 MEMB     90       POPC     H91      HEL1     0.150000       1.00800           0
     12008 MEMB     90       POPC     C210     CEL1    -0.150000       12.0110           0
     12009 MEMB     90       POPC     H101     HEL1     0.150000       1.00800           0
     12010 MEMB     90       POPC     C211     CTL2    -0.180000       12.0110           0
     12011 MEMB     90       POPC     H11R     HAL2     0.900000E-01   1.00800           0
     12012 MEMB     90       POPC     H11S     HAL2     0.900000E-01   1.00800           0
     12013 MEMB     90       POPC     C212     CTL2    -0.180000       12.0110           0
     12014 MEMB     90       POPC     H12R     HAL2     0.900000E-01   1.00800           0
     12015 MEMB     90       POPC     H12S     HAL2     0.900000E-01   1.00800           0
     12016 MEMB     90       POPC     C213     CTL2    -0.180000       12.0110           0
     12017 MEMB     90       POPC     H13R     HAL2     0.900000E-01   1.00800           0
     12018 MEMB     90       POPC     H13S     HAL2     0.900000E-01   1.00800           0
     12019 MEMB     90       POPC     C214     CTL2    -0.180000       12.0110           0
     12020 MEMB     90       POPC     H14R     HAL2     0.900000E-01   1.00800           0
     12021 MEMB     90       POPC     H14S     HAL2     0.900000E-01   1.00800           0
     12022 MEMB     90       POPC     C215     CTL2    -0.180000       12.0110           0
     12023 MEMB     90       POPC     H15R     HAL2     0.900000E-01   1.00800           0
     12024 MEMB     90       POPC     H15S     HAL2     0.900000E-01   1.00800           0
     12025 MEMB     90       POPC     C216     CTL2    -0.180000       12.0110           0
     12026 MEMB     90       POPC     H16R     HAL2     0.900000E-01   1.00800           0
     12027 MEMB     90       POPC     H16S     HAL2     0.900000E-01   1.00800           0
     12028 MEMB     90       POPC     C217     CTL2    -0.180000       12.0110           0
     12029 MEMB     90       POPC     H17R     HAL2     0.900000E-01   1.00800           0
     12030 MEMB     90       POPC     H17S     HAL2     0.900000E-01   1.00800           0
     12031 MEMB     90       POPC     C218     CTL3    -0.270000       12.0110           0
     12032 MEMB     90       POPC     H18R     HAL3     0.900000E-01   1.00800           0
     12033 MEMB     90       POPC     H18S     HAL3     0.900000E-01   1.00800           0
     12034 MEMB     90       POPC     H18T     HAL3     0.900000E-01   1.00800           0
     12035 MEMB     90       POPC     C33      CTL2    -0.180000       12.0110           0
     12036 MEMB     90       POPC     H3X      HAL2     0.900000E-01   1.00800           0
     12037 MEMB     90       POPC     H3Y      HAL2     0.900000E-01   1.00800           0
     12038 MEMB     90       POPC     C34      CTL2    -0.180000       12.0110           0
     12039 MEMB     90       POPC     H4X      HAL2     0.900000E-01   1.00800           0
     12040 MEMB     90       POPC     H4Y      HAL2     0.900000E-01   1.00800           0
     12041 MEMB     90       POPC     C35      CTL2    -0.180000       12.0110           0
     12042 MEMB     90       POPC     H5X      HAL2     0.900000E-01   1.00800           0
     12043 MEMB     90       POPC     H5Y      HAL2     0.900000E-01   1.00800           0
     12044 MEMB     90       POPC     C36      CTL2    -0.180000       12.0110           0
     12045 MEMB     90       POPC     H6X      HAL2     0.900000E-01   1.00800           0
     12046 MEMB     90       POPC     H6Y      HAL2     0.900000E-01   1.00800           0
     12047 MEMB     90       POPC     C37      CTL2    -0.180000       12.0110           0
     12048 MEMB     90       POPC     H7X      HAL2     0.900000E-01   1.00800           0
     12049 MEMB     90       POPC     H7Y      HAL2     0.900000E-01   1.00800           0
     12050 MEMB     90       POPC     C38      CTL2    -0.180000       12.0110           0
     12051 MEMB     90       POPC     H8X      HAL2     0.900000E-01   1.00800           0
     12052 MEMB     90       POPC     H8Y      HAL2     0.900000E-01   1.00800           0
     12053 MEMB     90       POPC     C39      CTL2    -0.180000       12.0110           0
     12054 MEMB     90       POPC     H9X      HAL2     0.900000E-01   1.00800           0
     12055 MEMB     90       POPC     H9Y      HAL2     0.900000E-01   1.00800           0
     12056 MEMB     90       POPC     C310     CTL2    -0.180000       12.0110           0
     12057 MEMB     90       POPC     H10X     HAL2     0.900000E-01   1.00800           0
     12058 MEMB     90       POPC     H10Y     HAL2     0.900000E-01   1.00800           0
     12059 MEMB     90       POPC     C311     CTL2    -0.180000       12.0110           0
     12060 MEMB     90       POPC     H11X     HAL2     0.900000E-01   1.00800           0
     12061 MEMB     90       POPC     H11Y     HAL2     0.900000E-01   1.00800           0
     12062 MEMB     90       POPC     C312     CTL2    -0.180000       12.0110           0
     12063 MEMB     90       POPC     H12X     HAL2     0.900000E-01   1.00800           0
     12064 MEMB     90       POPC     H12Y     HAL2     0.900000E-01   1.00800           0
     12065 MEMB     90       POPC     C313     CTL2    -0.180000       12.0110           0
     12066 MEMB     90       POPC     H13X     HAL2     0.900000E-01   1.00800           0
     12067 MEMB     90       POPC     H13Y     HAL2     0.900000E-01   1.00800           0
     12068 MEMB     90       POPC     C314     CTL2    -0.180000       12.0110           0
     12069 MEMB     90       POPC     H14X     HAL2     0.900000E-01   1.00800           0
     12070 MEMB     90       POPC     H14Y     HAL2     0.900000E-01   1.00800           0
     12071 MEMB     90       POPC     C315     CTL2    -0.180000       12.0110           0
     12072 MEMB     90       POPC     H15X     HAL2     0.900000E-01   1.00800           0
     12073 MEMB     90       POPC     H15Y     HAL2     0.900000E-01   1.00800           0
     12074 MEMB     90       POPC     C316     CTL3    -0.270000       12.0110           0
     12075 MEMB     90       POPC     H16X     HAL3     0.900000E-01   1.00800           0
     12076 MEMB     90       POPC     H16Y     HAL3     0.900000E-01   1.00800           0
     12077 MEMB     90       POPC     H16Z     HAL3     0.900000E-01   1.00800           0
     12078 MEMB     91       POPC     N        NTL     -0.600000       14.0070           0
     12079 MEMB     91       POPC     C12      CTL2    -0.100000       12.0110           0
     12080 MEMB     91       POPC     H12A     HL       0.250000       1.00800           0
     12081 MEMB     91       POPC     H12B     HL       0.250000       1.00800           0
     12082 MEMB     91       POPC     C13      CTL5    -0.350000       12.0110           0
     12083 MEMB     91       POPC     H13A     HL       0.250000       1.00800           0
     12084 MEMB     91       POPC     H13B     HL       0.250000       1.00800           0
     12085 MEMB     91       POPC     H13C     HL       0.250000       1.00800           0
     12086 MEMB     91       POPC     C14      CTL5    -0.350000       12.0110           0
     12087 MEMB     91       POPC     H14A     HL       0.250000       1.00800           0
     12088 MEMB     91       POPC     H14B     HL       0.250000       1.00800           0
     12089 MEMB     91       POPC     H14C     HL       0.250000       1.00800           0
     12090 MEMB     91       POPC     C15      CTL5    -0.350000       12.0110           0
     12091 MEMB     91       POPC     H15A     HL       0.250000       1.00800           0
     12092 MEMB     91       POPC     H15B     HL       0.250000       1.00800           0
     12093 MEMB     91       POPC     H15C     HL       0.250000       1.00800           0
     12094 MEMB     91       POPC     C11      CTL2    -0.800000E-01   12.0110           0
     12095 MEMB     91       POPC     H11A     HAL2     0.900000E-01   1.00800           0
     12096 MEMB     91       POPC     H11B     HAL2     0.900000E-01   1.00800           0
     12097 MEMB     91       POPC     P        PL       1.500000       30.9740           0
     12098 MEMB     91       POPC     O13      O2L     -0.780000       15.9994           0
     12099 MEMB     91       POPC     O14      O2L     -0.780000       15.9994           0
     12100 MEMB     91       POPC     O12      OSLP    -0.570000       15.9994           0
     12101 MEMB     91       POPC     O11      OSLP    -0.570000       15.9994           0
     12102 MEMB     91       POPC     C1       CTL2    -0.800000E-01   12.0110           0
     12103 MEMB     91       POPC     HA       HAL2     0.900000E-01   1.00800           0
     12104 MEMB     91       POPC     HB       HAL2     0.900000E-01   1.00800           0
     12105 MEMB     91       POPC     C2       CTL1     0.170000       12.0110           0
     12106 MEMB     91       POPC     HS       HAL1     0.900000E-01   1.00800           0
     12107 MEMB     91       POPC     O21      OSL     -0.490000       15.9994           0
     12108 MEMB     91       POPC     C21      CL       0.900000       12.0110           0
     12109 MEMB     91       POPC     O22      OBL     -0.630000       15.9994           0
     12110 MEMB     91       POPC     C22      CTL2    -0.220000       12.0110           0
     12111 MEMB     91       POPC     H2R      HAL2     0.900000E-01   1.00800           0
     12112 MEMB     91       POPC     H2S      HAL2     0.900000E-01   1.00800           0
     12113 MEMB     91       POPC     C3       CTL2     0.800000E-01   12.0110           0
     12114 MEMB     91       POPC     HX       HAL2     0.900000E-01   1.00800           0
     12115 MEMB     91       POPC     HY       HAL2     0.900000E-01   1.00800           0
     12116 MEMB     91       POPC     O31      OSL     -0.490000       15.9994           0
     12117 MEMB     91       POPC     C31      CL       0.900000       12.0110           0
     12118 MEMB     91       POPC     O32      OBL     -0.630000       15.9994           0
     12119 MEMB     91       POPC     C32      CTL2    -0.220000       12.0110           0
     12120 MEMB     91       POPC     H2X      HAL2     0.900000E-01   1.00800           0
     12121 MEMB     91       POPC     H2Y      HAL2     0.900000E-01   1.00800           0
     12122 MEMB     91       POPC     C23      CTL2    -0.180000       12.0110           0
     12123 MEMB     91       POPC     H3R      HAL2     0.900000E-01   1.00800           0
     12124 MEMB     91       POPC     H3S      HAL2     0.900000E-01   1.00800           0
     12125 MEMB     91       POPC     C24      CTL2    -0.180000       12.0110           0
     12126 MEMB     91       POPC     H4R      HAL2     0.900000E-01   1.00800           0
     12127 MEMB     91       POPC     H4S      HAL2     0.900000E-01   1.00800           0
     12128 MEMB     91       POPC     C25      CTL2    -0.180000       12.0110           0
     12129 MEMB     91       POPC     H5R      HAL2     0.900000E-01   1.00800           0
     12130 MEMB     91       POPC     H5S      HAL2     0.900000E-01   1.00800           0
     12131 MEMB     91       POPC     C26      CTL2    -0.180000       12.0110           0
     12132 MEMB     91       POPC     H6R      HAL2     0.900000E-01   1.00800           0
     12133 MEMB     91       POPC     H6S      HAL2     0.900000E-01   1.00800           0
     12134 MEMB     91       POPC     C27      CTL2    -0.180000       12.0110           0
     12135 MEMB     91       POPC     H7R      HAL2     0.900000E-01   1.00800           0
     12136 MEMB     91       POPC     H7S      HAL2     0.900000E-01   1.00800           0
     12137 MEMB     91       POPC     C28      CTL2    -0.180000       12.0110           0
     12138 MEMB     91       POPC     H8R      HAL2     0.900000E-01   1.00800           0
     12139 MEMB     91       POPC     H8S      HAL2     0.900000E-01   1.00800           0
     12140 MEMB     91       POPC     C29      CEL1    -0.150000       12.0110           0
     12141 MEMB     91       POPC     H91      HEL1     0.150000       1.00800           0
     12142 MEMB     91       POPC     C210     CEL1    -0.150000       12.0110           0
     12143 MEMB     91       POPC     H101     HEL1     0.150000       1.00800           0
     12144 MEMB     91       POPC     C211     CTL2    -0.180000       12.0110           0
     12145 MEMB     91       POPC     H11R     HAL2     0.900000E-01   1.00800           0
     12146 MEMB     91       POPC     H11S     HAL2     0.900000E-01   1.00800           0
     12147 MEMB     91       POPC     C212     CTL2    -0.180000       12.0110           0
     12148 MEMB     91       POPC     H12R     HAL2     0.900000E-01   1.00800           0
     12149 MEMB     91       POPC     H12S     HAL2     0.900000E-01   1.00800           0
     12150 MEMB     91       POPC     C213     CTL2    -0.180000       12.0110           0
     12151 MEMB     91       POPC     H13R     HAL2     0.900000E-01   1.00800           0
     12152 MEMB     91       POPC     H13S     HAL2     0.900000E-01   1.00800           0
     12153 MEMB     91       POPC     C214     CTL2    -0.180000       12.0110           0
     12154 MEMB     91       POPC     H14R     HAL2     0.900000E-01   1.00800           0
     12155 MEMB     91       POPC     H14S     HAL2     0.900000E-01   1.00800           0
     12156 MEMB     91       POPC     C215     CTL2    -0.180000       12.0110           0
     12157 MEMB     91       POPC     H15R     HAL2     0.900000E-01   1.00800           0
     12158 MEMB     91       POPC     H15S     HAL2     0.900000E-01   1.00800           0
     12159 MEMB     91       POPC     C216     CTL2    -0.180000       12.0110           0
     12160 MEMB     91       POPC     H16R     HAL2     0.900000E-01   1.00800           0
     12161 MEMB     91       POPC     H16S     HAL2     0.900000E-01   1.00800           0
     12162 MEMB     91       POPC     C217     CTL2    -0.180000       12.0110           0
     12163 MEMB     91       POPC     H17R     HAL2     0.900000E-01   1.00800           0
     12164 MEMB     91       POPC     H17S     HAL2     0.900000E-01   1.00800           0
     12165 MEMB     91       POPC     C218     CTL3    -0.270000       12.0110           0
     12166 MEMB     91       POPC     H18R     HAL3     0.900000E-01   1.00800           0
     12167 MEMB     91       POPC     H18S     HAL3     0.900000E-01   1.00800           0
     12168 MEMB     91       POPC     H18T     HAL3     0.900000E-01   1.00800           0
     12169 MEMB     91       POPC     C33      CTL2    -0.180000       12.0110           0
     12170 MEMB     91       POPC     H3X      HAL2     0.900000E-01   1.00800           0
     12171 MEMB     91       POPC     H3Y      HAL2     0.900000E-01   1.00800           0
     12172 MEMB     91       POPC     C34      CTL2    -0.180000       12.0110           0
     12173 MEMB     91       POPC     H4X      HAL2     0.900000E-01   1.00800           0
     12174 MEMB     91       POPC     H4Y      HAL2     0.900000E-01   1.00800           0
     12175 MEMB     91       POPC     C35      CTL2    -0.180000       12.0110           0
     12176 MEMB     91       POPC     H5X      HAL2     0.900000E-01   1.00800           0
     12177 MEMB     91       POPC     H5Y      HAL2     0.900000E-01   1.00800           0
     12178 MEMB     91       POPC     C36      CTL2    -0.180000       12.0110           0
     12179 MEMB     91       POPC     H6X      HAL2     0.900000E-01   1.00800           0
     12180 MEMB     91       POPC     H6Y      HAL2     0.900000E-01   1.00800           0
     12181 MEMB     91       POPC     C37      CTL2    -0.180000       12.0110           0
     12182 MEMB     91       POPC     H7X      HAL2     0.900000E-01   1.00800           0
     12183 MEMB     91       POPC     H7Y      HAL2     0.900000E-01   1.00800           0
     12184 MEMB     91       POPC     C38      CTL2    -0.180000       12.0110           0
     12185 MEMB     91       POPC     H8X      HAL2     0.900000E-01   1.00800           0
     12186 MEMB     91       POPC     H8Y      HAL2     0.900000E-01   1.00800           0
     12187 MEMB     91       POPC     C39      CTL2    -0.180000       12.0110           0
     12188 MEMB     91       POPC     H9X      HAL2     0.900000E-01   1.00800           0
     12189 MEMB     91       POPC     H9Y      HAL2     0.900000E-01   1.00800           0
     12190 MEMB     91       POPC     C310     CTL2    -0.180000       12.0110           0
     12191 MEMB     91       POPC     H10X     HAL2     0.900000E-01   1.00800           0
     12192 MEMB     91       POPC     H10Y     HAL2     0.900000E-01   1.00800           0
     12193 MEMB     91       POPC     C311     CTL2    -0.180000       12.0110           0
     12194 MEMB     91       POPC     H11X     HAL2     0.900000E-01   1.00800           0
     12195 MEMB     91       POPC     H11Y     HAL2     0.900000E-01   1.00800           0
     12196 MEMB     91       POPC     C312     CTL2    -0.180000       12.0110           0
     12197 MEMB     91       POPC     H12X     HAL2     0.900000E-01   1.00800           0
     12198 MEMB     91       POPC     H12Y     HAL2     0.900000E-01   1.00800           0
     12199 MEMB     91       POPC     C313     CTL2    -0.180000       12.0110           0
     12200 MEMB     91       POPC     H13X     HAL2     0.900000E-01   1.00800           0
     12201 MEMB     91       POPC     H13Y     HAL2     0.900000E-01   1.00800           0
     12202 MEMB     91       POPC     C314     CTL2    -0.180000       12.0110           0
     12203 MEMB     91       POPC     H14X     HAL2     0.900000E-01   1.00800           0
     12204 MEMB     91       POPC     H14Y     HAL2     0.900000E-01   1.00800           0
     12205 MEMB     91       POPC     C315     CTL2    -0.180000       12.0110           0
     12206 MEMB     91       POPC     H15X     HAL2     0.900000E-01   1.00800           0
     12207 MEMB     91       POPC     H15Y     HAL2     0.900000E-01   1.00800           0
     12208 MEMB     91       POPC     C316     CTL3    -0.270000       12.0110           0
     12209 MEMB     91       POPC     H16X     HAL3     0.900000E-01   1.00800           0
     12210 MEMB     91       POPC     H16Y     HAL3     0.900000E-01   1.00800           0
     12211 MEMB     91       POPC     H16Z     HAL3     0.900000E-01   1.00800           0
     12212 MEMB     92       POPS     N        NH3L    -0.300000       14.0070           0
     12213 MEMB     92       POPS     HN1      HCL      0.330000       1.00800           0
     12214 MEMB     92       POPS     HN2      HCL      0.330000       1.00800           0
     12215 MEMB     92       POPS     HN3      HCL      0.330000       1.00800           0
     12216 MEMB     92       POPS     C12      CTL1     0.210000       12.0110           0
     12217 MEMB     92       POPS     H12A     HBL      0.100000       1.00800           0
     12218 MEMB     92       POPS     C13      CCL      0.340000       12.0110           0
     12219 MEMB     92       POPS     O13A     OCL     -0.670000       15.9994           0
     12220 MEMB     92       POPS     O13B     OCL     -0.670000       15.9994           0
     12221 MEMB     92       POPS     C11      CTL2    -0.800000E-01   12.0110           0
     12222 MEMB     92       POPS     H11A     HAL2     0.900000E-01   1.00800           0
     12223 MEMB     92       POPS     H11B     HAL2     0.900000E-01   1.00800           0
     12224 MEMB     92       POPS     P        PL       1.500000       30.9740           0
     12225 MEMB     92       POPS     O13      O2L     -0.780000       15.9994           0
     12226 MEMB     92       POPS     O14      O2L     -0.780000       15.9994           0
     12227 MEMB     92       POPS     O12      OSLP    -0.570000       15.9994           0
     12228 MEMB     92       POPS     O11      OSLP    -0.570000       15.9994           0
     12229 MEMB     92       POPS     C1       CTL2    -0.800000E-01   12.0110           0
     12230 MEMB     92       POPS     HA       HAL2     0.900000E-01   1.00800           0
     12231 MEMB     92       POPS     HB       HAL2     0.900000E-01   1.00800           0
     12232 MEMB     92       POPS     C2       CTL1     0.170000       12.0110           0
     12233 MEMB     92       POPS     HS       HAL1     0.900000E-01   1.00800           0
     12234 MEMB     92       POPS     O21      OSL     -0.490000       15.9994           0
     12235 MEMB     92       POPS     C21      CL       0.900000       12.0110           0
     12236 MEMB     92       POPS     O22      OBL     -0.630000       15.9994           0
     12237 MEMB     92       POPS     C22      CTL2    -0.220000       12.0110           0
     12238 MEMB     92       POPS     H2R      HAL2     0.900000E-01   1.00800           0
     12239 MEMB     92       POPS     H2S      HAL2     0.900000E-01   1.00800           0
     12240 MEMB     92       POPS     C3       CTL2     0.800000E-01   12.0110           0
     12241 MEMB     92       POPS     HX       HAL2     0.900000E-01   1.00800           0
     12242 MEMB     92       POPS     HY       HAL2     0.900000E-01   1.00800           0
     12243 MEMB     92       POPS     O31      OSL     -0.490000       15.9994           0
     12244 MEMB     92       POPS     C31      CL       0.900000       12.0110           0
     12245 MEMB     92       POPS     O32      OBL     -0.630000       15.9994           0
     12246 MEMB     92       POPS     C32      CTL2    -0.220000       12.0110           0
     12247 MEMB     92       POPS     H2X      HAL2     0.900000E-01   1.00800           0
     12248 MEMB     92       POPS     H2Y      HAL2     0.900000E-01   1.00800           0
     12249 MEMB     92       POPS     C23      CTL2    -0.180000       12.0110           0
     12250 MEMB     92       POPS     H3R      HAL2     0.900000E-01   1.00800           0
     12251 MEMB     92       POPS     H3S      HAL2     0.900000E-01   1.00800           0
     12252 MEMB     92       POPS     C24      CTL2    -0.180000       12.0110           0
     12253 MEMB     92       POPS     H4R      HAL2     0.900000E-01   1.00800           0
     12254 MEMB     92       POPS     H4S      HAL2     0.900000E-01   1.00800           0
     12255 MEMB     92       POPS     C25      CTL2    -0.180000       12.0110           0
     12256 MEMB     92       POPS     H5R      HAL2     0.900000E-01   1.00800           0
     12257 MEMB     92       POPS     H5S      HAL2     0.900000E-01   1.00800           0
     12258 MEMB     92       POPS     C26      CTL2    -0.180000       12.0110           0
     12259 MEMB     92       POPS     H6R      HAL2     0.900000E-01   1.00800           0
     12260 MEMB     92       POPS     H6S      HAL2     0.900000E-01   1.00800           0
     12261 MEMB     92       POPS     C27      CTL2    -0.180000       12.0110           0
     12262 MEMB     92       POPS     H7R      HAL2     0.900000E-01   1.00800           0
     12263 MEMB     92       POPS     H7S      HAL2     0.900000E-01   1.00800           0
     12264 MEMB     92       POPS     C28      CTL2    -0.180000       12.0110           0
     12265 MEMB     92       POPS     H8R      HAL2     0.900000E-01   1.00800           0
     12266 MEMB     92       POPS     H8S      HAL2     0.900000E-01   1.00800           0
     12267 MEMB     92       POPS     C29      CEL1    -0.150000       12.0110           0
     12268 MEMB     92       POPS     H91      HEL1     0.150000       1.00800           0
     12269 MEMB     92       POPS     C210     CEL1    -0.150000       12.0110           0
     12270 MEMB     92       POPS     H101     HEL1     0.150000       1.00800           0
     12271 MEMB     92       POPS     C211     CTL2    -0.180000       12.0110           0
     12272 MEMB     92       POPS     H11R     HAL2     0.900000E-01   1.00800           0
     12273 MEMB     92       POPS     H11S     HAL2     0.900000E-01   1.00800           0
     12274 MEMB     92       POPS     C212     CTL2    -0.180000       12.0110           0
     12275 MEMB     92       POPS     H12R     HAL2     0.900000E-01   1.00800           0
     12276 MEMB     92       POPS     H12S     HAL2     0.900000E-01   1.00800           0
     12277 MEMB     92       POPS     C213     CTL2    -0.180000       12.0110           0
     12278 MEMB     92       POPS     H13R     HAL2     0.900000E-01   1.00800           0
     12279 MEMB     92       POPS     H13S     HAL2     0.900000E-01   1.00800           0
     12280 MEMB     92       POPS     C214     CTL2    -0.180000       12.0110           0
     12281 MEMB     92       POPS     H14R     HAL2     0.900000E-01   1.00800           0
     12282 MEMB     92       POPS     H14S     HAL2     0.900000E-01   1.00800           0
     12283 MEMB     92       POPS     C215     CTL2    -0.180000       12.0110           0
     12284 MEMB     92       POPS     H15R     HAL2     0.900000E-01   1.00800           0
     12285 MEMB     92       POPS     H15S     HAL2     0.900000E-01   1.00800           0
     12286 MEMB     92       POPS     C216     CTL2    -0.180000       12.0110           0
     12287 MEMB     92       POPS     H16R     HAL2     0.900000E-01   1.00800           0
     12288 MEMB     92       POPS     H16S     HAL2     0.900000E-01   1.00800           0
     12289 MEMB     92       POPS     C217     CTL2    -0.180000       12.0110           0
     12290 MEMB     92       POPS     H17R     HAL2     0.900000E-01   1.00800           0
     12291 MEMB     92       POPS     H17S     HAL2     0.900000E-01   1.00800           0
     12292 MEMB     92       POPS     C218     CTL3    -0.270000       12.0110           0
     12293 MEMB     92       POPS     H18R     HAL3     0.900000E-01   1.00800           0
     12294 MEMB     92       POPS     H18S     HAL3     0.900000E-01   1.00800           0
     12295 MEMB     92       POPS     H18T     HAL3     0.900000E-01   1.00800           0
     12296 MEMB     92       POPS     C33      CTL2    -0.180000       12.0110           0
     12297 MEMB     92       POPS     H3X      HAL2     0.900000E-01   1.00800           0
     12298 MEMB     92       POPS     H3Y      HAL2     0.900000E-01   1.00800           0
     12299 MEMB     92       POPS     C34      CTL2    -0.180000       12.0110           0
     12300 MEMB     92       POPS     H4X      HAL2     0.900000E-01   1.00800           0
     12301 MEMB     92       POPS     H4Y      HAL2     0.900000E-01   1.00800           0
     12302 MEMB     92       POPS     C35      CTL2    -0.180000       12.0110           0
     12303 MEMB     92       POPS     H5X      HAL2     0.900000E-01   1.00800           0
     12304 MEMB     92       POPS     H5Y      HAL2     0.900000E-01   1.00800           0
     12305 MEMB     92       POPS     C36      CTL2    -0.180000       12.0110           0
     12306 MEMB     92       POPS     H6X      HAL2     0.900000E-01   1.00800           0
     12307 MEMB     92       POPS     H6Y      HAL2     0.900000E-01   1.00800           0
     12308 MEMB     92       POPS     C37      CTL2    -0.180000       12.0110           0
     12309 MEMB     92       POPS     H7X      HAL2     0.900000E-01   1.00800           0
     12310 MEMB     92       POPS     H7Y      HAL2     0.900000E-01   1.00800           0
     12311 MEMB     92       POPS     C38      CTL2    -0.180000       12.0110           0
     12312 MEMB     92       POPS     H8X      HAL2     0.900000E-01   1.00800           0
     12313 MEMB     92       POPS     H8Y      HAL2     0.900000E-01   1.00800           0
     12314 MEMB     92       POPS     C39      CTL2    -0.180000       12.0110           0
     12315 MEMB     92       POPS     H9X      HAL2     0.900000E-01   1.00800           0
     12316 MEMB     92       POPS     H9Y      HAL2     0.900000E-01   1.00800           0
     12317 MEMB     92       POPS     C310     CTL2    -0.180000       12.0110           0
     12318 MEMB     92       POPS     H10X     HAL2     0.900000E-01   1.00800           0
     12319 MEMB     92       POPS     H10Y     HAL2     0.900000E-01   1.00800           0
     12320 MEMB     92       POPS     C311     CTL2    -0.180000       12.0110           0
     12321 MEMB     92       POPS     H11X     HAL2     0.900000E-01   1.00800           0
     12322 MEMB     92       POPS     H11Y     HAL2     0.900000E-01   1.00800           0
     12323 MEMB     92       POPS     C312     CTL2    -0.180000       12.0110           0
     12324 MEMB     92       POPS     H12X     HAL2     0.900000E-01   1.00800           0
     12325 MEMB     92       POPS     H12Y     HAL2     0.900000E-01   1.00800           0
     12326 MEMB     92       POPS     C313     CTL2    -0.180000       12.0110           0
     12327 MEMB     92       POPS     H13X     HAL2     0.900000E-01   1.00800           0
     12328 MEMB     92       POPS     H13Y     HAL2     0.900000E-01   1.00800           0
     12329 MEMB     92       POPS     C314     CTL2    -0.180000       12.0110           0
     12330 MEMB     92       POPS     H14X     HAL2     0.900000E-01   1.00800           0
     12331 MEMB     92       POPS     H14Y     HAL2     0.900000E-01   1.00800           0
     12332 MEMB     92       POPS     C315     CTL2    -0.180000       12.0110           0
     12333 MEMB     92       POPS     H15X     HAL2     0.900000E-01   1.00800           0
     12334 MEMB     92       POPS     H15Y     HAL2     0.900000E-01   1.00800           0
     12335 MEMB     92       POPS     C316     CTL3    -0.270000       12.0110           0
     12336 MEMB     92       POPS     H16X     HAL3     0.900000E-01   1.00800           0
     12337 MEMB     92       POPS     H16Y     HAL3     0.900000E-01   1.00800           0
     12338 MEMB     92       POPS     H16Z     HAL3     0.900000E-01   1.00800           0
     12339 MEMB     93       POPC     N        NTL     -0.600000       14.0070           0
     12340 MEMB     93       POPC     C12      CTL2    -0.100000       12.0110           0
     12341 MEMB     93       POPC     H12A     HL       0.250000       1.00800           0
     12342 MEMB     93       POPC     H12B     HL       0.250000       1.00800           0
     12343 MEMB     93       POPC     C13      CTL5    -0.350000       12.0110           0
     12344 MEMB     93       POPC     H13A     HL       0.250000       1.00800           0
     12345 MEMB     93       POPC     H13B     HL       0.250000       1.00800           0
     12346 MEMB     93       POPC     H13C     HL       0.250000       1.00800           0
     12347 MEMB     93       POPC     C14      CTL5    -0.350000       12.0110           0
     12348 MEMB     93       POPC     H14A     HL       0.250000       1.00800           0
     12349 MEMB     93       POPC     H14B     HL       0.250000       1.00800           0
     12350 MEMB     93       POPC     H14C     HL       0.250000       1.00800           0
     12351 MEMB     93       POPC     C15      CTL5    -0.350000       12.0110           0
     12352 MEMB     93       POPC     H15A     HL       0.250000       1.00800           0
     12353 MEMB     93       POPC     H15B     HL       0.250000       1.00800           0
     12354 MEMB     93       POPC     H15C     HL       0.250000       1.00800           0
     12355 MEMB     93       POPC     C11      CTL2    -0.800000E-01   12.0110           0
     12356 MEMB     93       POPC     H11A     HAL2     0.900000E-01   1.00800           0
     12357 MEMB     93       POPC     H11B     HAL2     0.900000E-01   1.00800           0
     12358 MEMB     93       POPC     P        PL       1.500000       30.9740           0
     12359 MEMB     93       POPC     O13      O2L     -0.780000       15.9994           0
     12360 MEMB     93       POPC     O14      O2L     -0.780000       15.9994           0
     12361 MEMB     93       POPC     O12      OSLP    -0.570000       15.9994           0
     12362 MEMB     93       POPC     O11      OSLP    -0.570000       15.9994           0
     12363 MEMB     93       POPC     C1       CTL2    -0.800000E-01   12.0110           0
     12364 MEMB     93       POPC     HA       HAL2     0.900000E-01   1.00800           0
     12365 MEMB     93       POPC     HB       HAL2     0.900000E-01   1.00800           0
     12366 MEMB     93       POPC     C2       CTL1     0.170000       12.0110           0
     12367 MEMB     93       POPC     HS       HAL1     0.900000E-01   1.00800           0
     12368 MEMB     93       POPC     O21      OSL     -0.490000       15.9994           0
     12369 MEMB     93       POPC     C21      CL       0.900000       12.0110           0
     12370 MEMB     93       POPC     O22      OBL     -0.630000       15.9994           0
     12371 MEMB     93       POPC     C22      CTL2    -0.220000       12.0110           0
     12372 MEMB     93       POPC     H2R      HAL2     0.900000E-01   1.00800           0
     12373 MEMB     93       POPC     H2S      HAL2     0.900000E-01   1.00800           0
     12374 MEMB     93       POPC     C3       CTL2     0.800000E-01   12.0110           0
     12375 MEMB     93       POPC     HX       HAL2     0.900000E-01   1.00800           0
     12376 MEMB     93       POPC     HY       HAL2     0.900000E-01   1.00800           0
     12377 MEMB     93       POPC     O31      OSL     -0.490000       15.9994           0
     12378 MEMB     93       POPC     C31      CL       0.900000       12.0110           0
     12379 MEMB     93       POPC     O32      OBL     -0.630000       15.9994           0
     12380 MEMB     93       POPC     C32      CTL2    -0.220000       12.0110           0
     12381 MEMB     93       POPC     H2X      HAL2     0.900000E-01   1.00800           0
     12382 MEMB     93       POPC     H2Y      HAL2     0.900000E-01   1.00800           0
     12383 MEMB     93       POPC     C23      CTL2    -0.180000       12.0110           0
     12384 MEMB     93       POPC     H3R      HAL2     0.900000E-01   1.00800           0
     12385 MEMB     93       POPC     H3S      HAL2     0.900000E-01   1.00800           0
     12386 MEMB     93       POPC     C24      CTL2    -0.180000       12.0110           0
     12387 MEMB     93       POPC     H4R      HAL2     0.900000E-01   1.00800           0
     12388 MEMB     93       POPC     H4S      HAL2     0.900000E-01   1.00800           0
     12389 MEMB     93       POPC     C25      CTL2    -0.180000       12.0110           0
     12390 MEMB     93       POPC     H5R      HAL2     0.900000E-01   1.00800           0
     12391 MEMB     93       POPC     H5S      HAL2     0.900000E-01   1.00800           0
     12392 MEMB     93       POPC     C26      CTL2    -0.180000       12.0110           0
     12393 MEMB     93       POPC     H6R      HAL2     0.900000E-01   1.00800           0
     12394 MEMB     93       POPC     H6S      HAL2     0.900000E-01   1.00800           0
     12395 MEMB     93       POPC     C27      CTL2    -0.180000       12.0110           0
     12396 MEMB     93       POPC     H7R      HAL2     0.900000E-01   1.00800           0
     12397 MEMB     93       POPC     H7S      HAL2     0.900000E-01   1.00800           0
     12398 MEMB     93       POPC     C28      CTL2    -0.180000       12.0110           0
     12399 MEMB     93       POPC     H8R      HAL2     0.900000E-01   1.00800           0
     12400 MEMB     93       POPC     H8S      HAL2     0.900000E-01   1.00800           0
     12401 MEMB     93       POPC     C29      CEL1    -0.150000       12.0110           0
     12402 MEMB     93       POPC     H91      HEL1     0.150000       1.00800           0
     12403 MEMB     93       POPC     C210     CEL1    -0.150000       12.0110           0
     12404 MEMB     93       POPC     H101     HEL1     0.150000       1.00800           0
     12405 MEMB     93       POPC     C211     CTL2    -0.180000       12.0110           0
     12406 MEMB     93       POPC     H11R     HAL2     0.900000E-01   1.00800           0
     12407 MEMB     93       POPC     H11S     HAL2     0.900000E-01   1.00800           0
     12408 MEMB     93       POPC     C212     CTL2    -0.180000       12.0110           0
     12409 MEMB     93       POPC     H12R     HAL2     0.900000E-01   1.00800           0
     12410 MEMB     93       POPC     H12S     HAL2     0.900000E-01   1.00800           0
     12411 MEMB     93       POPC     C213     CTL2    -0.180000       12.0110           0
     12412 MEMB     93       POPC     H13R     HAL2     0.900000E-01   1.00800           0
     12413 MEMB     93       POPC     H13S     HAL2     0.900000E-01   1.00800           0
     12414 MEMB     93       POPC     C214     CTL2    -0.180000       12.0110           0
     12415 MEMB     93       POPC     H14R     HAL2     0.900000E-01   1.00800           0
     12416 MEMB     93       POPC     H14S     HAL2     0.900000E-01   1.00800           0
     12417 MEMB     93       POPC     C215     CTL2    -0.180000       12.0110           0
     12418 MEMB     93       POPC     H15R     HAL2     0.900000E-01   1.00800           0
     12419 MEMB     93       POPC     H15S     HAL2     0.900000E-01   1.00800           0
     12420 MEMB     93       POPC     C216     CTL2    -0.180000       12.0110           0
     12421 MEMB     93       POPC     H16R     HAL2     0.900000E-01   1.00800           0
     12422 MEMB     93       POPC     H16S     HAL2     0.900000E-01   1.00800           0
     12423 MEMB     93       POPC     C217     CTL2    -0.180000       12.0110           0
     12424 MEMB     93       POPC     H17R     HAL2     0.900000E-01   1.00800           0
     12425 MEMB     93       POPC     H17S     HAL2     0.900000E-01   1.00800           0
     12426 MEMB     93       POPC     C218     CTL3    -0.270000       12.0110           0
     12427 MEMB     93       POPC     H18R     HAL3     0.900000E-01   1.00800           0
     12428 MEMB     93       POPC     H18S     HAL3     0.900000E-01   1.00800           0
     12429 MEMB     93       POPC     H18T     HAL3     0.900000E-01   1.00800           0
     12430 MEMB     93       POPC     C33      CTL2    -0.180000       12.0110           0
     12431 MEMB     93       POPC     H3X      HAL2     0.900000E-01   1.00800           0
     12432 MEMB     93       POPC     H3Y      HAL2     0.900000E-01   1.00800           0
     12433 MEMB     93       POPC     C34      CTL2    -0.180000       12.0110           0
     12434 MEMB     93       POPC     H4X      HAL2     0.900000E-01   1.00800           0
     12435 MEMB     93       POPC     H4Y      HAL2     0.900000E-01   1.00800           0
     12436 MEMB     93       POPC     C35      CTL2    -0.180000       12.0110           0
     12437 MEMB     93       POPC     H5X      HAL2     0.900000E-01   1.00800           0
     12438 MEMB     93       POPC     H5Y      HAL2     0.900000E-01   1.00800           0
     12439 MEMB     93       POPC     C36      CTL2    -0.180000       12.0110           0
     12440 MEMB     93       POPC     H6X      HAL2     0.900000E-01   1.00800           0
     12441 MEMB     93       POPC     H6Y      HAL2     0.900000E-01   1.00800           0
     12442 MEMB     93       POPC     C37      CTL2    -0.180000       12.0110           0
     12443 MEMB     93       POPC     H7X      HAL2     0.900000E-01   1.00800           0
     12444 MEMB     93       POPC     H7Y      HAL2     0.900000E-01   1.00800           0
     12445 MEMB     93       POPC     C38      CTL2    -0.180000       12.0110           0
     12446 MEMB     93       POPC     H8X      HAL2     0.900000E-01   1.00800           0
     12447 MEMB     93       POPC     H8Y      HAL2     0.900000E-01   1.00800           0
     12448 MEMB     93       POPC     C39      CTL2    -0.180000       12.0110           0
     12449 MEMB     93       POPC     H9X      HAL2     0.900000E-01   1.00800           0
     12450 MEMB     93       POPC     H9Y      HAL2     0.900000E-01   1.00800           0
     12451 MEMB     93       POPC     C310     CTL2    -0.180000       12.0110           0
     12452 MEMB     93       POPC     H10X     HAL2     0.900000E-01   1.00800           0
     12453 MEMB     93       POPC     H10Y     HAL2     0.900000E-01   1.00800           0
     12454 MEMB     93       POPC     C311     CTL2    -0.180000       12.0110           0
     12455 MEMB     93       POPC     H11X     HAL2     0.900000E-01   1.00800           0
     12456 MEMB     93       POPC     H11Y     HAL2     0.900000E-01   1.00800           0
     12457 MEMB     93       POPC     C312     CTL2    -0.180000       12.0110           0
     12458 MEMB     93       POPC     H12X     HAL2     0.900000E-01   1.00800           0
     12459 MEMB     93       POPC     H12Y     HAL2     0.900000E-01   1.00800           0
     12460 MEMB     93       POPC     C313     CTL2    -0.180000       12.0110           0
     12461 MEMB     93       POPC     H13X     HAL2     0.900000E-01   1.00800           0
     12462 MEMB     93       POPC     H13Y     HAL2     0.900000E-01   1.00800           0
     12463 MEMB     93       POPC     C314     CTL2    -0.180000       12.0110           0
     12464 MEMB     93       POPC     H14X     HAL2     0.900000E-01   1.00800           0
     12465 MEMB     93       POPC     H14Y     HAL2     0.900000E-01   1.00800           0
     12466 MEMB     93       POPC     C315     CTL2    -0.180000       12.0110           0
     12467 MEMB     93       POPC     H15X     HAL2     0.900000E-01   1.00800           0
     12468 MEMB     93       POPC     H15Y     HAL2     0.900000E-01   1.00800           0
     12469 MEMB     93       POPC     C316     CTL3    -0.270000       12.0110           0
     12470 MEMB     93       POPC     H16X     HAL3     0.900000E-01   1.00800           0
     12471 MEMB     93       POPC     H16Y     HAL3     0.900000E-01   1.00800           0
     12472 MEMB     93       POPC     H16Z     HAL3     0.900000E-01   1.00800           0
     12473 MEMB     94       POPC     N        NTL     -0.600000       14.0070           0
     12474 MEMB     94       POPC     C12      CTL2    -0.100000       12.0110           0
     12475 MEMB     94       POPC     H12A     HL       0.250000       1.00800           0
     12476 MEMB     94       POPC     H12B     HL       0.250000       1.00800           0
     12477 MEMB     94       POPC     C13      CTL5    -0.350000       12.0110           0
     12478 MEMB     94       POPC     H13A     HL       0.250000       1.00800           0
     12479 MEMB     94       POPC     H13B     HL       0.250000       1.00800           0
     12480 MEMB     94       POPC     H13C     HL       0.250000       1.00800           0
     12481 MEMB     94       POPC     C14      CTL5    -0.350000       12.0110           0
     12482 MEMB     94       POPC     H14A     HL       0.250000       1.00800           0
     12483 MEMB     94       POPC     H14B     HL       0.250000       1.00800           0
     12484 MEMB     94       POPC     H14C     HL       0.250000       1.00800           0
     12485 MEMB     94       POPC     C15      CTL5    -0.350000       12.0110           0
     12486 MEMB     94       POPC     H15A     HL       0.250000       1.00800           0
     12487 MEMB     94       POPC     H15B     HL       0.250000       1.00800           0
     12488 MEMB     94       POPC     H15C     HL       0.250000       1.00800           0
     12489 MEMB     94       POPC     C11      CTL2    -0.800000E-01   12.0110           0
     12490 MEMB     94       POPC     H11A     HAL2     0.900000E-01   1.00800           0
     12491 MEMB     94       POPC     H11B     HAL2     0.900000E-01   1.00800           0
     12492 MEMB     94       POPC     P        PL       1.500000       30.9740           0
     12493 MEMB     94       POPC     O13      O2L     -0.780000       15.9994           0
     12494 MEMB     94       POPC     O14      O2L     -0.780000       15.9994           0
     12495 MEMB     94       POPC     O12      OSLP    -0.570000       15.9994           0
     12496 MEMB     94       POPC     O11      OSLP    -0.570000       15.9994           0
     12497 MEMB     94       POPC     C1       CTL2    -0.800000E-01   12.0110           0
     12498 MEMB     94       POPC     HA       HAL2     0.900000E-01   1.00800           0
     12499 MEMB     94       POPC     HB       HAL2     0.900000E-01   1.00800           0
     12500 MEMB     94       POPC     C2       CTL1     0.170000       12.0110           0
     12501 MEMB     94       POPC     HS       HAL1     0.900000E-01   1.00800           0
     12502 MEMB     94       POPC     O21      OSL     -0.490000       15.9994           0
     12503 MEMB     94       POPC     C21      CL       0.900000       12.0110           0
     12504 MEMB     94       POPC     O22      OBL     -0.630000       15.9994           0
     12505 MEMB     94       POPC     C22      CTL2    -0.220000       12.0110           0
     12506 MEMB     94       POPC     H2R      HAL2     0.900000E-01   1.00800           0
     12507 MEMB     94       POPC     H2S      HAL2     0.900000E-01   1.00800           0
     12508 MEMB     94       POPC     C3       CTL2     0.800000E-01   12.0110           0
     12509 MEMB     94       POPC     HX       HAL2     0.900000E-01   1.00800           0
     12510 MEMB     94       POPC     HY       HAL2     0.900000E-01   1.00800           0
     12511 MEMB     94       POPC     O31      OSL     -0.490000       15.9994           0
     12512 MEMB     94       POPC     C31      CL       0.900000       12.0110           0
     12513 MEMB     94       POPC     O32      OBL     -0.630000       15.9994           0
     12514 MEMB     94       POPC     C32      CTL2    -0.220000       12.0110           0
     12515 MEMB     94       POPC     H2X      HAL2     0.900000E-01   1.00800           0
     12516 MEMB     94       POPC     H2Y      HAL2     0.900000E-01   1.00800           0
     12517 MEMB     94       POPC     C23      CTL2    -0.180000       12.0110           0
     12518 MEMB     94       POPC     H3R      HAL2     0.900000E-01   1.00800           0
     12519 MEMB     94       POPC     H3S      HAL2     0.900000E-01   1.00800           0
     12520 MEMB     94       POPC     C24      CTL2    -0.180000       12.0110           0
     12521 MEMB     94       POPC     H4R      HAL2     0.900000E-01   1.00800           0
     12522 MEMB     94       POPC     H4S      HAL2     0.900000E-01   1.00800           0
     12523 MEMB     94       POPC     C25      CTL2    -0.180000       12.0110           0
     12524 MEMB     94       POPC     H5R      HAL2     0.900000E-01   1.00800           0
     12525 MEMB     94       POPC     H5S      HAL2     0.900000E-01   1.00800           0
     12526 MEMB     94       POPC     C26      CTL2    -0.180000       12.0110           0
     12527 MEMB     94       POPC     H6R      HAL2     0.900000E-01   1.00800           0
     12528 MEMB     94       POPC     H6S      HAL2     0.900000E-01   1.00800           0
     12529 MEMB     94       POPC     C27      CTL2    -0.180000       12.0110           0
     12530 MEMB     94       POPC     H7R      HAL2     0.900000E-01   1.00800           0
     12531 MEMB     94       POPC     H7S      HAL2     0.900000E-01   1.00800           0
     12532 MEMB     94       POPC     C28      CTL2    -0.180000       12.0110           0
     12533 MEMB     94       POPC     H8R      HAL2     0.900000E-01   1.00800           0
     12534 MEMB     94       POPC     H8S      HAL2     0.900000E-01   1.00800           0
     12535 MEMB     94       POPC     C29      CEL1    -0.150000       12.0110           0
     12536 MEMB     94       POPC     H91      HEL1     0.150000       1.00800           0
     12537 MEMB     94       POPC     C210     CEL1    -0.150000       12.0110           0
     12538 MEMB     94       POPC     H101     HEL1     0.150000       1.00800           0
     12539 MEMB     94       POPC     C211     CTL2    -0.180000       12.0110           0
     12540 MEMB     94       POPC     H11R     HAL2     0.900000E-01   1.00800           0
     12541 MEMB     94       POPC     H11S     HAL2     0.900000E-01   1.00800           0
     12542 MEMB     94       POPC     C212     CTL2    -0.180000       12.0110           0
     12543 MEMB     94       POPC     H12R     HAL2     0.900000E-01   1.00800           0
     12544 MEMB     94       POPC     H12S     HAL2     0.900000E-01   1.00800           0
     12545 MEMB     94       POPC     C213     CTL2    -0.180000       12.0110           0
     12546 MEMB     94       POPC     H13R     HAL2     0.900000E-01   1.00800           0
     12547 MEMB     94       POPC     H13S     HAL2     0.900000E-01   1.00800           0
     12548 MEMB     94       POPC     C214     CTL2    -0.180000       12.0110           0
     12549 MEMB     94       POPC     H14R     HAL2     0.900000E-01   1.00800           0
     12550 MEMB     94       POPC     H14S     HAL2     0.900000E-01   1.00800           0
     12551 MEMB     94       POPC     C215     CTL2    -0.180000       12.0110           0
     12552 MEMB     94       POPC     H15R     HAL2     0.900000E-01   1.00800           0
     12553 MEMB     94       POPC     H15S     HAL2     0.900000E-01   1.00800           0
     12554 MEMB     94       POPC     C216     CTL2    -0.180000       12.0110           0
     12555 MEMB     94       POPC     H16R     HAL2     0.900000E-01   1.00800           0
     12556 MEMB     94       POPC     H16S     HAL2     0.900000E-01   1.00800           0
     12557 MEMB     94       POPC     C217     CTL2    -0.180000       12.0110           0
     12558 MEMB     94       POPC     H17R     HAL2     0.900000E-01   1.00800           0
     12559 MEMB     94       POPC     H17S     HAL2     0.900000E-01   1.00800           0
     12560 MEMB     94       POPC     C218     CTL3    -0.270000       12.0110           0
     12561 MEMB     94       POPC     H18R     HAL3     0.900000E-01   1.00800           0
     12562 MEMB     94       POPC     H18S     HAL3     0.900000E-01   1.00800           0
     12563 MEMB     94       POPC     H18T     HAL3     0.900000E-01   1.00800           0
     12564 MEMB     94       POPC     C33      CTL2    -0.180000       12.0110           0
     12565 MEMB     94       POPC     H3X      HAL2     0.900000E-01   1.00800           0
     12566 MEMB     94       POPC     H3Y      HAL2     0.900000E-01   1.00800           0
     12567 MEMB     94       POPC     C34      CTL2    -0.180000       12.0110           0
     12568 MEMB     94       POPC     H4X      HAL2     0.900000E-01   1.00800           0
     12569 MEMB     94       POPC     H4Y      HAL2     0.900000E-01   1.00800           0
     12570 MEMB     94       POPC     C35      CTL2    -0.180000       12.0110           0
     12571 MEMB     94       POPC     H5X      HAL2     0.900000E-01   1.00800           0
     12572 MEMB     94       POPC     H5Y      HAL2     0.900000E-01   1.00800           0
     12573 MEMB     94       POPC     C36      CTL2    -0.180000       12.0110           0
     12574 MEMB     94       POPC     H6X      HAL2     0.900000E-01   1.00800           0
     12575 MEMB     94       POPC     H6Y      HAL2     0.900000E-01   1.00800           0
     12576 MEMB     94       POPC     C37      CTL2    -0.180000       12.0110           0
     12577 MEMB     94       POPC     H7X      HAL2     0.900000E-01   1.00800           0
     12578 MEMB     94       POPC     H7Y      HAL2     0.900000E-01   1.00800           0
     12579 MEMB     94       POPC     C38      CTL2    -0.180000       12.0110           0
     12580 MEMB     94       POPC     H8X      HAL2     0.900000E-01   1.00800           0
     12581 MEMB     94       POPC     H8Y      HAL2     0.900000E-01   1.00800           0
     12582 MEMB     94       POPC     C39      CTL2    -0.180000       12.0110           0
     12583 MEMB     94       POPC     H9X      HAL2     0.900000E-01   1.00800           0
     12584 MEMB     94       POPC     H9Y      HAL2     0.900000E-01   1.00800           0
     12585 MEMB     94       POPC     C310     CTL2    -0.180000       12.0110           0
     12586 MEMB     94       POPC     H10X     HAL2     0.900000E-01   1.00800           0
     12587 MEMB     94       POPC     H10Y     HAL2     0.900000E-01   1.00800           0
     12588 MEMB     94       POPC     C311     CTL2    -0.180000       12.0110           0
     12589 MEMB     94       POPC     H11X     HAL2     0.900000E-01   1.00800           0
     12590 MEMB     94       POPC     H11Y     HAL2     0.900000E-01   1.00800           0
     12591 MEMB     94       POPC     C312     CTL2    -0.180000       12.0110           0
     12592 MEMB     94       POPC     H12X     HAL2     0.900000E-01   1.00800           0
     12593 MEMB     94       POPC     H12Y     HAL2     0.900000E-01   1.00800           0
     12594 MEMB     94       POPC     C313     CTL2    -0.180000       12.0110           0
     12595 MEMB     94       POPC     H13X     HAL2     0.900000E-01   1.00800           0
     12596 MEMB     94       POPC     H13Y     HAL2     0.900000E-01   1.00800           0
     12597 MEMB     94       POPC     C314     CTL2    -0.180000       12.0110           0
     12598 MEMB     94       POPC     H14X     HAL2     0.900000E-01   1.00800           0
     12599 MEMB     94       POPC     H14Y     HAL2     0.900000E-01   1.00800           0
     12600 MEMB     94       POPC     C315     CTL2    -0.180000       12.0110           0
     12601 MEMB     94       POPC     H15X     HAL2     0.900000E-01   1.00800           0
     12602 MEMB     94       POPC     H15Y     HAL2     0.900000E-01   1.00800           0
     12603 MEMB     94       POPC     C316     CTL3    -0.270000       12.0110           0
     12604 MEMB     94       POPC     H16X     HAL3     0.900000E-01   1.00800           0
     12605 MEMB     94       POPC     H16Y     HAL3     0.900000E-01   1.00800           0
     12606 MEMB     94       POPC     H16Z     HAL3     0.900000E-01   1.00800           0
     12607 MEMB     95       POPC     N        NTL     -0.600000       14.0070           0
     12608 MEMB     95       POPC     C12      CTL2    -0.100000       12.0110           0
     12609 MEMB     95       POPC     H12A     HL       0.250000       1.00800           0
     12610 MEMB     95       POPC     H12B     HL       0.250000       1.00800           0
     12611 MEMB     95       POPC     C13      CTL5    -0.350000       12.0110           0
     12612 MEMB     95       POPC     H13A     HL       0.250000       1.00800           0
     12613 MEMB     95       POPC     H13B     HL       0.250000       1.00800           0
     12614 MEMB     95       POPC     H13C     HL       0.250000       1.00800           0
     12615 MEMB     95       POPC     C14      CTL5    -0.350000       12.0110           0
     12616 MEMB     95       POPC     H14A     HL       0.250000       1.00800           0
     12617 MEMB     95       POPC     H14B     HL       0.250000       1.00800           0
     12618 MEMB     95       POPC     H14C     HL       0.250000       1.00800           0
     12619 MEMB     95       POPC     C15      CTL5    -0.350000       12.0110           0
     12620 MEMB     95       POPC     H15A     HL       0.250000       1.00800           0
     12621 MEMB     95       POPC     H15B     HL       0.250000       1.00800           0
     12622 MEMB     95       POPC     H15C     HL       0.250000       1.00800           0
     12623 MEMB     95       POPC     C11      CTL2    -0.800000E-01   12.0110           0
     12624 MEMB     95       POPC     H11A     HAL2     0.900000E-01   1.00800           0
     12625 MEMB     95       POPC     H11B     HAL2     0.900000E-01   1.00800           0
     12626 MEMB     95       POPC     P        PL       1.500000       30.9740           0
     12627 MEMB     95       POPC     O13      O2L     -0.780000       15.9994           0
     12628 MEMB     95       POPC     O14      O2L     -0.780000       15.9994           0
     12629 MEMB     95       POPC     O12      OSLP    -0.570000       15.9994           0
     12630 MEMB     95       POPC     O11      OSLP    -0.570000       15.9994           0
     12631 MEMB     95       POPC     C1       CTL2    -0.800000E-01   12.0110           0
     12632 MEMB     95       POPC     HA       HAL2     0.900000E-01   1.00800           0
     12633 MEMB     95       POPC     HB       HAL2     0.900000E-01   1.00800           0
     12634 MEMB     95       POPC     C2       CTL1     0.170000       12.0110           0
     12635 MEMB     95       POPC     HS       HAL1     0.900000E-01   1.00800           0
     12636 MEMB     95       POPC     O21      OSL     -0.490000       15.9994           0
     12637 MEMB     95       POPC     C21      CL       0.900000       12.0110           0
     12638 MEMB     95       POPC     O22      OBL     -0.630000       15.9994           0
     12639 MEMB     95       POPC     C22      CTL2    -0.220000       12.0110           0
     12640 MEMB     95       POPC     H2R      HAL2     0.900000E-01   1.00800           0
     12641 MEMB     95       POPC     H2S      HAL2     0.900000E-01   1.00800           0
     12642 MEMB     95       POPC     C3       CTL2     0.800000E-01   12.0110           0
     12643 MEMB     95       POPC     HX       HAL2     0.900000E-01   1.00800           0
     12644 MEMB     95       POPC     HY       HAL2     0.900000E-01   1.00800           0
     12645 MEMB     95       POPC     O31      OSL     -0.490000       15.9994           0
     12646 MEMB     95       POPC     C31      CL       0.900000       12.0110           0
     12647 MEMB     95       POPC     O32      OBL     -0.630000       15.9994           0
     12648 MEMB     95       POPC     C32      CTL2    -0.220000       12.0110           0
     12649 MEMB     95       POPC     H2X      HAL2     0.900000E-01   1.00800           0
     12650 MEMB     95       POPC     H2Y      HAL2     0.900000E-01   1.00800           0
     12651 MEMB     95       POPC     C23      CTL2    -0.180000       12.0110           0
     12652 MEMB     95       POPC     H3R      HAL2     0.900000E-01   1.00800           0
     12653 MEMB     95       POPC     H3S      HAL2     0.900000E-01   1.00800           0
     12654 MEMB     95       POPC     C24      CTL2    -0.180000       12.0110           0
     12655 MEMB     95       POPC     H4R      HAL2     0.900000E-01   1.00800           0
     12656 MEMB     95       POPC     H4S      HAL2     0.900000E-01   1.00800           0
     12657 MEMB     95       POPC     C25      CTL2    -0.180000       12.0110           0
     12658 MEMB     95       POPC     H5R      HAL2     0.900000E-01   1.00800           0
     12659 MEMB     95       POPC     H5S      HAL2     0.900000E-01   1.00800           0
     12660 MEMB     95       POPC     C26      CTL2    -0.180000       12.0110           0
     12661 MEMB     95       POPC     H6R      HAL2     0.900000E-01   1.00800           0
     12662 MEMB     95       POPC     H6S      HAL2     0.900000E-01   1.00800           0
     12663 MEMB     95       POPC     C27      CTL2    -0.180000       12.0110           0
     12664 MEMB     95       POPC     H7R      HAL2     0.900000E-01   1.00800           0
     12665 MEMB     95       POPC     H7S      HAL2     0.900000E-01   1.00800           0
     12666 MEMB     95       POPC     C28      CTL2    -0.180000       12.0110           0
     12667 MEMB     95       POPC     H8R      HAL2     0.900000E-01   1.00800           0
     12668 MEMB     95       POPC     H8S      HAL2     0.900000E-01   1.00800           0
     12669 MEMB     95       POPC     C29      CEL1    -0.150000       12.0110           0
     12670 MEMB     95       POPC     H91      HEL1     0.150000       1.00800           0
     12671 MEMB     95       POPC     C210     CEL1    -0.150000       12.0110           0
     12672 MEMB     95       POPC     H101     HEL1     0.150000       1.00800           0
     12673 MEMB     95       POPC     C211     CTL2    -0.180000       12.0110           0
     12674 MEMB     95       POPC     H11R     HAL2     0.900000E-01   1.00800           0
     12675 MEMB     95       POPC     H11S     HAL2     0.900000E-01   1.00800           0
     12676 MEMB     95       POPC     C212     CTL2    -0.180000       12.0110           0
     12677 MEMB     95       POPC     H12R     HAL2     0.900000E-01   1.00800           0
     12678 MEMB     95       POPC     H12S     HAL2     0.900000E-01   1.00800           0
     12679 MEMB     95       POPC     C213     CTL2    -0.180000       12.0110           0
     12680 MEMB     95       POPC     H13R     HAL2     0.900000E-01   1.00800           0
     12681 MEMB     95       POPC     H13S     HAL2     0.900000E-01   1.00800           0
     12682 MEMB     95       POPC     C214     CTL2    -0.180000       12.0110           0
     12683 MEMB     95       POPC     H14R     HAL2     0.900000E-01   1.00800           0
     12684 MEMB     95       POPC     H14S     HAL2     0.900000E-01   1.00800           0
     12685 MEMB     95       POPC     C215     CTL2    -0.180000       12.0110           0
     12686 MEMB     95       POPC     H15R     HAL2     0.900000E-01   1.00800           0
     12687 MEMB     95       POPC     H15S     HAL2     0.900000E-01   1.00800           0
     12688 MEMB     95       POPC     C216     CTL2    -0.180000       12.0110           0
     12689 MEMB     95       POPC     H16R     HAL2     0.900000E-01   1.00800           0
     12690 MEMB     95       POPC     H16S     HAL2     0.900000E-01   1.00800           0
     12691 MEMB     95       POPC     C217     CTL2    -0.180000       12.0110           0
     12692 MEMB     95       POPC     H17R     HAL2     0.900000E-01   1.00800           0
     12693 MEMB     95       POPC     H17S     HAL2     0.900000E-01   1.00800           0
     12694 MEMB     95       POPC     C218     CTL3    -0.270000       12.0110           0
     12695 MEMB     95       POPC     H18R     HAL3     0.900000E-01   1.00800           0
     12696 MEMB     95       POPC     H18S     HAL3     0.900000E-01   1.00800           0
     12697 MEMB     95       POPC     H18T     HAL3     0.900000E-01   1.00800           0
     12698 MEMB     95       POPC     C33      CTL2    -0.180000       12.0110           0
     12699 MEMB     95       POPC     H3X      HAL2     0.900000E-01   1.00800           0
     12700 MEMB     95       POPC     H3Y      HAL2     0.900000E-01   1.00800           0
     12701 MEMB     95       POPC     C34      CTL2    -0.180000       12.0110           0
     12702 MEMB     95       POPC     H4X      HAL2     0.900000E-01   1.00800           0
     12703 MEMB     95       POPC     H4Y      HAL2     0.900000E-01   1.00800           0
     12704 MEMB     95       POPC     C35      CTL2    -0.180000       12.0110           0
     12705 MEMB     95       POPC     H5X      HAL2     0.900000E-01   1.00800           0
     12706 MEMB     95       POPC     H5Y      HAL2     0.900000E-01   1.00800           0
     12707 MEMB     95       POPC     C36      CTL2    -0.180000       12.0110           0
     12708 MEMB     95       POPC     H6X      HAL2     0.900000E-01   1.00800           0
     12709 MEMB     95       POPC     H6Y      HAL2     0.900000E-01   1.00800           0
     12710 MEMB     95       POPC     C37      CTL2    -0.180000       12.0110           0
     12711 MEMB     95       POPC     H7X      HAL2     0.900000E-01   1.00800           0
     12712 MEMB     95       POPC     H7Y      HAL2     0.900000E-01   1.00800           0
     12713 MEMB     95       POPC     C38      CTL2    -0.180000       12.0110           0
     12714 MEMB     95       POPC     H8X      HAL2     0.900000E-01   1.00800           0
     12715 MEMB     95       POPC     H8Y      HAL2     0.900000E-01   1.00800           0
     12716 MEMB     95       POPC     C39      CTL2    -0.180000       12.0110           0
     12717 MEMB     95       POPC     H9X      HAL2     0.900000E-01   1.00800           0
     12718 MEMB     95       POPC     H9Y      HAL2     0.900000E-01   1.00800           0
     12719 MEMB     95       POPC     C310     CTL2    -0.180000       12.0110           0
     12720 MEMB     95       POPC     H10X     HAL2     0.900000E-01   1.00800           0
     12721 MEMB     95       POPC     H10Y     HAL2     0.900000E-01   1.00800           0
     12722 MEMB     95       POPC     C311     CTL2    -0.180000       12.0110           0
     12723 MEMB     95       POPC     H11X     HAL2     0.900000E-01   1.00800           0
     12724 MEMB     95       POPC     H11Y     HAL2     0.900000E-01   1.00800           0
     12725 MEMB     95       POPC     C312     CTL2    -0.180000       12.0110           0
     12726 MEMB     95       POPC     H12X     HAL2     0.900000E-01   1.00800           0
     12727 MEMB     95       POPC     H12Y     HAL2     0.900000E-01   1.00800           0
     12728 MEMB     95       POPC     C313     CTL2    -0.180000       12.0110           0
     12729 MEMB     95       POPC     H13X     HAL2     0.900000E-01   1.00800           0
     12730 MEMB     95       POPC     H13Y     HAL2     0.900000E-01   1.00800           0
     12731 MEMB     95       POPC     C314     CTL2    -0.180000       12.0110           0
     12732 MEMB     95       POPC     H14X     HAL2     0.900000E-01   1.00800           0
     12733 MEMB     95       POPC     H14Y     HAL2     0.900000E-01   1.00800           0
     12734 MEMB     95       POPC     C315     CTL2    -0.180000       12.0110           0
     12735 MEMB     95       POPC     H15X     HAL2     0.900000E-01   1.00800           0
     12736 MEMB     95       POPC     H15Y     HAL2     0.900000E-01   1.00800           0
     12737 MEMB     95       POPC     C316     CTL3    -0.270000       12.0110           0
     12738 MEMB     95       POPC     H16X     HAL3     0.900000E-01   1.00800           0
     12739 MEMB     95       POPC     H16Y     HAL3     0.900000E-01   1.00800           0
     12740 MEMB     95       POPC     H16Z     HAL3     0.900000E-01   1.00800           0
     12741 MEMB     96       POPC     N        NTL     -0.600000       14.0070           0
     12742 MEMB     96       POPC     C12      CTL2    -0.100000       12.0110           0
     12743 MEMB     96       POPC     H12A     HL       0.250000       1.00800           0
     12744 MEMB     96       POPC     H12B     HL       0.250000       1.00800           0
     12745 MEMB     96       POPC     C13      CTL5    -0.350000       12.0110           0
     12746 MEMB     96       POPC     H13A     HL       0.250000       1.00800           0
     12747 MEMB     96       POPC     H13B     HL       0.250000       1.00800           0
     12748 MEMB     96       POPC     H13C     HL       0.250000       1.00800           0
     12749 MEMB     96       POPC     C14      CTL5    -0.350000       12.0110           0
     12750 MEMB     96       POPC     H14A     HL       0.250000       1.00800           0
     12751 MEMB     96       POPC     H14B     HL       0.250000       1.00800           0
     12752 MEMB     96       POPC     H14C     HL       0.250000       1.00800           0
     12753 MEMB     96       POPC     C15      CTL5    -0.350000       12.0110           0
     12754 MEMB     96       POPC     H15A     HL       0.250000       1.00800           0
     12755 MEMB     96       POPC     H15B     HL       0.250000       1.00800           0
     12756 MEMB     96       POPC     H15C     HL       0.250000       1.00800           0
     12757 MEMB     96       POPC     C11      CTL2    -0.800000E-01   12.0110           0
     12758 MEMB     96       POPC     H11A     HAL2     0.900000E-01   1.00800           0
     12759 MEMB     96       POPC     H11B     HAL2     0.900000E-01   1.00800           0
     12760 MEMB     96       POPC     P        PL       1.500000       30.9740           0
     12761 MEMB     96       POPC     O13      O2L     -0.780000       15.9994           0
     12762 MEMB     96       POPC     O14      O2L     -0.780000       15.9994           0
     12763 MEMB     96       POPC     O12      OSLP    -0.570000       15.9994           0
     12764 MEMB     96       POPC     O11      OSLP    -0.570000       15.9994           0
     12765 MEMB     96       POPC     C1       CTL2    -0.800000E-01   12.0110           0
     12766 MEMB     96       POPC     HA       HAL2     0.900000E-01   1.00800           0
     12767 MEMB     96       POPC     HB       HAL2     0.900000E-01   1.00800           0
     12768 MEMB     96       POPC     C2       CTL1     0.170000       12.0110           0
     12769 MEMB     96       POPC     HS       HAL1     0.900000E-01   1.00800           0
     12770 MEMB     96       POPC     O21      OSL     -0.490000       15.9994           0
     12771 MEMB     96       POPC     C21      CL       0.900000       12.0110           0
     12772 MEMB     96       POPC     O22      OBL     -0.630000       15.9994           0
     12773 MEMB     96       POPC     C22      CTL2    -0.220000       12.0110           0
     12774 MEMB     96       POPC     H2R      HAL2     0.900000E-01   1.00800           0
     12775 MEMB     96       POPC     H2S      HAL2     0.900000E-01   1.00800           0
     12776 MEMB     96       POPC     C3       CTL2     0.800000E-01   12.0110           0
     12777 MEMB     96       POPC     HX       HAL2     0.900000E-01   1.00800           0
     12778 MEMB     96       POPC     HY       HAL2     0.900000E-01   1.00800           0
     12779 MEMB     96       POPC     O31      OSL     -0.490000       15.9994           0
     12780 MEMB     96       POPC     C31      CL       0.900000       12.0110           0
     12781 MEMB     96       POPC     O32      OBL     -0.630000       15.9994           0
     12782 MEMB     96       POPC     C32      CTL2    -0.220000       12.0110           0
     12783 MEMB     96       POPC     H2X      HAL2     0.900000E-01   1.00800           0
     12784 MEMB     96       POPC     H2Y      HAL2     0.900000E-01   1.00800           0
     12785 MEMB     96       POPC     C23      CTL2    -0.180000       12.0110           0
     12786 MEMB     96       POPC     H3R      HAL2     0.900000E-01   1.00800           0
     12787 MEMB     96       POPC     H3S      HAL2     0.900000E-01   1.00800           0
     12788 MEMB     96       POPC     C24      CTL2    -0.180000       12.0110           0
     12789 MEMB     96       POPC     H4R      HAL2     0.900000E-01   1.00800           0
     12790 MEMB     96       POPC     H4S      HAL2     0.900000E-01   1.00800           0
     12791 MEMB     96       POPC     C25      CTL2    -0.180000       12.0110           0
     12792 MEMB     96       POPC     H5R      HAL2     0.900000E-01   1.00800           0
     12793 MEMB     96       POPC     H5S      HAL2     0.900000E-01   1.00800           0
     12794 MEMB     96       POPC     C26      CTL2    -0.180000       12.0110           0
     12795 MEMB     96       POPC     H6R      HAL2     0.900000E-01   1.00800           0
     12796 MEMB     96       POPC     H6S      HAL2     0.900000E-01   1.00800           0
     12797 MEMB     96       POPC     C27      CTL2    -0.180000       12.0110           0
     12798 MEMB     96       POPC     H7R      HAL2     0.900000E-01   1.00800           0
     12799 MEMB     96       POPC     H7S      HAL2     0.900000E-01   1.00800           0
     12800 MEMB     96       POPC     C28      CTL2    -0.180000       12.0110           0
     12801 MEMB     96       POPC     H8R      HAL2     0.900000E-01   1.00800           0
     12802 MEMB     96       POPC     H8S      HAL2     0.900000E-01   1.00800           0
     12803 MEMB     96       POPC     C29      CEL1    -0.150000       12.0110           0
     12804 MEMB     96       POPC     H91      HEL1     0.150000       1.00800           0
     12805 MEMB     96       POPC     C210     CEL1    -0.150000       12.0110           0
     12806 MEMB     96       POPC     H101     HEL1     0.150000       1.00800           0
     12807 MEMB     96       POPC     C211     CTL2    -0.180000       12.0110           0
     12808 MEMB     96       POPC     H11R     HAL2     0.900000E-01   1.00800           0
     12809 MEMB     96       POPC     H11S     HAL2     0.900000E-01   1.00800           0
     12810 MEMB     96       POPC     C212     CTL2    -0.180000       12.0110           0
     12811 MEMB     96       POPC     H12R     HAL2     0.900000E-01   1.00800           0
     12812 MEMB     96       POPC     H12S     HAL2     0.900000E-01   1.00800           0
     12813 MEMB     96       POPC     C213     CTL2    -0.180000       12.0110           0
     12814 MEMB     96       POPC     H13R     HAL2     0.900000E-01   1.00800           0
     12815 MEMB     96       POPC     H13S     HAL2     0.900000E-01   1.00800           0
     12816 MEMB     96       POPC     C214     CTL2    -0.180000       12.0110           0
     12817 MEMB     96       POPC     H14R     HAL2     0.900000E-01   1.00800           0
     12818 MEMB     96       POPC     H14S     HAL2     0.900000E-01   1.00800           0
     12819 MEMB     96       POPC     C215     CTL2    -0.180000       12.0110           0
     12820 MEMB     96       POPC     H15R     HAL2     0.900000E-01   1.00800           0
     12821 MEMB     96       POPC     H15S     HAL2     0.900000E-01   1.00800           0
     12822 MEMB     96       POPC     C216     CTL2    -0.180000       12.0110           0
     12823 MEMB     96       POPC     H16R     HAL2     0.900000E-01   1.00800           0
     12824 MEMB     96       POPC     H16S     HAL2     0.900000E-01   1.00800           0
     12825 MEMB     96       POPC     C217     CTL2    -0.180000       12.0110           0
     12826 MEMB     96       POPC     H17R     HAL2     0.900000E-01   1.00800           0
     12827 MEMB     96       POPC     H17S     HAL2     0.900000E-01   1.00800           0
     12828 MEMB     96       POPC     C218     CTL3    -0.270000       12.0110           0
     12829 MEMB     96       POPC     H18R     HAL3     0.900000E-01   1.00800           0
     12830 MEMB     96       POPC     H18S     HAL3     0.900000E-01   1.00800           0
     12831 MEMB     96       POPC     H18T     HAL3     0.900000E-01   1.00800           0
     12832 MEMB     96       POPC     C33      CTL2    -0.180000       12.0110           0
     12833 MEMB     96       POPC     H3X      HAL2     0.900000E-01   1.00800           0
     12834 MEMB     96       POPC     H3Y      HAL2     0.900000E-01   1.00800           0
     12835 MEMB     96       POPC     C34      CTL2    -0.180000       12.0110           0
     12836 MEMB     96       POPC     H4X      HAL2     0.900000E-01   1.00800           0
     12837 MEMB     96       POPC     H4Y      HAL2     0.900000E-01   1.00800           0
     12838 MEMB     96       POPC     C35      CTL2    -0.180000       12.0110           0
     12839 MEMB     96       POPC     H5X      HAL2     0.900000E-01   1.00800           0
     12840 MEMB     96       POPC     H5Y      HAL2     0.900000E-01   1.00800           0
     12841 MEMB     96       POPC     C36      CTL2    -0.180000       12.0110           0
     12842 MEMB     96       POPC     H6X      HAL2     0.900000E-01   1.00800           0
     12843 MEMB     96       POPC     H6Y      HAL2     0.900000E-01   1.00800           0
     12844 MEMB     96       POPC     C37      CTL2    -0.180000       12.0110           0
     12845 MEMB     96       POPC     H7X      HAL2     0.900000E-01   1.00800           0
     12846 MEMB     96       POPC     H7Y      HAL2     0.900000E-01   1.00800           0
     12847 MEMB     96       POPC     C38      CTL2    -0.180000       12.0110           0
     12848 MEMB     96       POPC     H8X      HAL2     0.900000E-01   1.00800           0
     12849 MEMB     96       POPC     H8Y      HAL2     0.900000E-01   1.00800           0
     12850 MEMB     96       POPC     C39      CTL2    -0.180000       12.0110           0
     12851 MEMB     96       POPC     H9X      HAL2     0.900000E-01   1.00800           0
     12852 MEMB     96       POPC     H9Y      HAL2     0.900000E-01   1.00800           0
     12853 MEMB     96       POPC     C310     CTL2    -0.180000       12.0110           0
     12854 MEMB     96       POPC     H10X     HAL2     0.900000E-01   1.00800           0
     12855 MEMB     96       POPC     H10Y     HAL2     0.900000E-01   1.00800           0
     12856 MEMB     96       POPC     C311     CTL2    -0.180000       12.0110           0
     12857 MEMB     96       POPC     H11X     HAL2     0.900000E-01   1.00800           0
     12858 MEMB     96       POPC     H11Y     HAL2     0.900000E-01   1.00800           0
     12859 MEMB     96       POPC     C312     CTL2    -0.180000       12.0110           0
     12860 MEMB     96       POPC     H12X     HAL2     0.900000E-01   1.00800           0
     12861 MEMB     96       POPC     H12Y     HAL2     0.900000E-01   1.00800           0
     12862 MEMB     96       POPC     C313     CTL2    -0.180000       12.0110           0
     12863 MEMB     96       POPC     H13X     HAL2     0.900000E-01   1.00800           0
     12864 MEMB     96       POPC     H13Y     HAL2     0.900000E-01   1.00800           0
     12865 MEMB     96       POPC     C314     CTL2    -0.180000       12.0110           0
     12866 MEMB     96       POPC     H14X     HAL2     0.900000E-01   1.00800           0
     12867 MEMB     96       POPC     H14Y     HAL2     0.900000E-01   1.00800           0
     12868 MEMB     96       POPC     C315     CTL2    -0.180000       12.0110           0
     12869 MEMB     96       POPC     H15X     HAL2     0.900000E-01   1.00800           0
     12870 MEMB     96       POPC     H15Y     HAL2     0.900000E-01   1.00800           0
     12871 MEMB     96       POPC     C316     CTL3    -0.270000       12.0110           0
     12872 MEMB     96       POPC     H16X     HAL3     0.900000E-01   1.00800           0
     12873 MEMB     96       POPC     H16Y     HAL3     0.900000E-01   1.00800           0
     12874 MEMB     96       POPC     H16Z     HAL3     0.900000E-01   1.00800           0
     12875 MEMB     97       POPC     N        NTL     -0.600000       14.0070           0
     12876 MEMB     97       POPC     C12      CTL2    -0.100000       12.0110           0
     12877 MEMB     97       POPC     H12A     HL       0.250000       1.00800           0
     12878 MEMB     97       POPC     H12B     HL       0.250000       1.00800           0
     12879 MEMB     97       POPC     C13      CTL5    -0.350000       12.0110           0
     12880 MEMB     97       POPC     H13A     HL       0.250000       1.00800           0
     12881 MEMB     97       POPC     H13B     HL       0.250000       1.00800           0
     12882 MEMB     97       POPC     H13C     HL       0.250000       1.00800           0
     12883 MEMB     97       POPC     C14      CTL5    -0.350000       12.0110           0
     12884 MEMB     97       POPC     H14A     HL       0.250000       1.00800           0
     12885 MEMB     97       POPC     H14B     HL       0.250000       1.00800           0
     12886 MEMB     97       POPC     H14C     HL       0.250000       1.00800           0
     12887 MEMB     97       POPC     C15      CTL5    -0.350000       12.0110           0
     12888 MEMB     97       POPC     H15A     HL       0.250000       1.00800           0
     12889 MEMB     97       POPC     H15B     HL       0.250000       1.00800           0
     12890 MEMB     97       POPC     H15C     HL       0.250000       1.00800           0
     12891 MEMB     97       POPC     C11      CTL2    -0.800000E-01   12.0110           0
     12892 MEMB     97       POPC     H11A     HAL2     0.900000E-01   1.00800           0
     12893 MEMB     97       POPC     H11B     HAL2     0.900000E-01   1.00800           0
     12894 MEMB     97       POPC     P        PL       1.500000       30.9740           0
     12895 MEMB     97       POPC     O13      O2L     -0.780000       15.9994           0
     12896 MEMB     97       POPC     O14      O2L     -0.780000       15.9994           0
     12897 MEMB     97       POPC     O12      OSLP    -0.570000       15.9994           0
     12898 MEMB     97       POPC     O11      OSLP    -0.570000       15.9994           0
     12899 MEMB     97       POPC     C1       CTL2    -0.800000E-01   12.0110           0
     12900 MEMB     97       POPC     HA       HAL2     0.900000E-01   1.00800           0
     12901 MEMB     97       POPC     HB       HAL2     0.900000E-01   1.00800           0
     12902 MEMB     97       POPC     C2       CTL1     0.170000       12.0110           0
     12903 MEMB     97       POPC     HS       HAL1     0.900000E-01   1.00800           0
     12904 MEMB     97       POPC     O21      OSL     -0.490000       15.9994           0
     12905 MEMB     97       POPC     C21      CL       0.900000       12.0110           0
     12906 MEMB     97       POPC     O22      OBL     -0.630000       15.9994           0
     12907 MEMB     97       POPC     C22      CTL2    -0.220000       12.0110           0
     12908 MEMB     97       POPC     H2R      HAL2     0.900000E-01   1.00800           0
     12909 MEMB     97       POPC     H2S      HAL2     0.900000E-01   1.00800           0
     12910 MEMB     97       POPC     C3       CTL2     0.800000E-01   12.0110           0
     12911 MEMB     97       POPC     HX       HAL2     0.900000E-01   1.00800           0
     12912 MEMB     97       POPC     HY       HAL2     0.900000E-01   1.00800           0
     12913 MEMB     97       POPC     O31      OSL     -0.490000       15.9994           0
     12914 MEMB     97       POPC     C31      CL       0.900000       12.0110           0
     12915 MEMB     97       POPC     O32      OBL     -0.630000       15.9994           0
     12916 MEMB     97       POPC     C32      CTL2    -0.220000       12.0110           0
     12917 MEMB     97       POPC     H2X      HAL2     0.900000E-01   1.00800           0
     12918 MEMB     97       POPC     H2Y      HAL2     0.900000E-01   1.00800           0
     12919 MEMB     97       POPC     C23      CTL2    -0.180000       12.0110           0
     12920 MEMB     97       POPC     H3R      HAL2     0.900000E-01   1.00800           0
     12921 MEMB     97       POPC     H3S      HAL2     0.900000E-01   1.00800           0
     12922 MEMB     97       POPC     C24      CTL2    -0.180000       12.0110           0
     12923 MEMB     97       POPC     H4R      HAL2     0.900000E-01   1.00800           0
     12924 MEMB     97       POPC     H4S      HAL2     0.900000E-01   1.00800           0
     12925 MEMB     97       POPC     C25      CTL2    -0.180000       12.0110           0
     12926 MEMB     97       POPC     H5R      HAL2     0.900000E-01   1.00800           0
     12927 MEMB     97       POPC     H5S      HAL2     0.900000E-01   1.00800           0
     12928 MEMB     97       POPC     C26      CTL2    -0.180000       12.0110           0
     12929 MEMB     97       POPC     H6R      HAL2     0.900000E-01   1.00800           0
     12930 MEMB     97       POPC     H6S      HAL2     0.900000E-01   1.00800           0
     12931 MEMB     97       POPC     C27      CTL2    -0.180000       12.0110           0
     12932 MEMB     97       POPC     H7R      HAL2     0.900000E-01   1.00800           0
     12933 MEMB     97       POPC     H7S      HAL2     0.900000E-01   1.00800           0
     12934 MEMB     97       POPC     C28      CTL2    -0.180000       12.0110           0
     12935 MEMB     97       POPC     H8R      HAL2     0.900000E-01   1.00800           0
     12936 MEMB     97       POPC     H8S      HAL2     0.900000E-01   1.00800           0
     12937 MEMB     97       POPC     C29      CEL1    -0.150000       12.0110           0
     12938 MEMB     97       POPC     H91      HEL1     0.150000       1.00800           0
     12939 MEMB     97       POPC     C210     CEL1    -0.150000       12.0110           0
     12940 MEMB     97       POPC     H101     HEL1     0.150000       1.00800           0
     12941 MEMB     97       POPC     C211     CTL2    -0.180000       12.0110           0
     12942 MEMB     97       POPC     H11R     HAL2     0.900000E-01   1.00800           0
     12943 MEMB     97       POPC     H11S     HAL2     0.900000E-01   1.00800           0
     12944 MEMB     97       POPC     C212     CTL2    -0.180000       12.0110           0
     12945 MEMB     97       POPC     H12R     HAL2     0.900000E-01   1.00800           0
     12946 MEMB     97       POPC     H12S     HAL2     0.900000E-01   1.00800           0
     12947 MEMB     97       POPC     C213     CTL2    -0.180000       12.0110           0
     12948 MEMB     97       POPC     H13R     HAL2     0.900000E-01   1.00800           0
     12949 MEMB     97       POPC     H13S     HAL2     0.900000E-01   1.00800           0
     12950 MEMB     97       POPC     C214     CTL2    -0.180000       12.0110           0
     12951 MEMB     97       POPC     H14R     HAL2     0.900000E-01   1.00800           0
     12952 MEMB     97       POPC     H14S     HAL2     0.900000E-01   1.00800           0
     12953 MEMB     97       POPC     C215     CTL2    -0.180000       12.0110           0
     12954 MEMB     97       POPC     H15R     HAL2     0.900000E-01   1.00800           0
     12955 MEMB     97       POPC     H15S     HAL2     0.900000E-01   1.00800           0
     12956 MEMB     97       POPC     C216     CTL2    -0.180000       12.0110           0
     12957 MEMB     97       POPC     H16R     HAL2     0.900000E-01   1.00800           0
     12958 MEMB     97       POPC     H16S     HAL2     0.900000E-01   1.00800           0
     12959 MEMB     97       POPC     C217     CTL2    -0.180000       12.0110           0
     12960 MEMB     97       POPC     H17R     HAL2     0.900000E-01   1.00800           0
     12961 MEMB     97       POPC     H17S     HAL2     0.900000E-01   1.00800           0
     12962 MEMB     97       POPC     C218     CTL3    -0.270000       12.0110           0
     12963 MEMB     97       POPC     H18R     HAL3     0.900000E-01   1.00800           0
     12964 MEMB     97       POPC     H18S     HAL3     0.900000E-01   1.00800           0
     12965 MEMB     97       POPC     H18T     HAL3     0.900000E-01   1.00800           0
     12966 MEMB     97       POPC     C33      CTL2    -0.180000       12.0110           0
     12967 MEMB     97       POPC     H3X      HAL2     0.900000E-01   1.00800           0
     12968 MEMB     97       POPC     H3Y      HAL2     0.900000E-01   1.00800           0
     12969 MEMB     97       POPC     C34      CTL2    -0.180000       12.0110           0
     12970 MEMB     97       POPC     H4X      HAL2     0.900000E-01   1.00800           0
     12971 MEMB     97       POPC     H4Y      HAL2     0.900000E-01   1.00800           0
     12972 MEMB     97       POPC     C35      CTL2    -0.180000       12.0110           0
     12973 MEMB     97       POPC     H5X      HAL2     0.900000E-01   1.00800           0
     12974 MEMB     97       POPC     H5Y      HAL2     0.900000E-01   1.00800           0
     12975 MEMB     97       POPC     C36      CTL2    -0.180000       12.0110           0
     12976 MEMB     97       POPC     H6X      HAL2     0.900000E-01   1.00800           0
     12977 MEMB     97       POPC     H6Y      HAL2     0.900000E-01   1.00800           0
     12978 MEMB     97       POPC     C37      CTL2    -0.180000       12.0110           0
     12979 MEMB     97       POPC     H7X      HAL2     0.900000E-01   1.00800           0
     12980 MEMB     97       POPC     H7Y      HAL2     0.900000E-01   1.00800           0
     12981 MEMB     97       POPC     C38      CTL2    -0.180000       12.0110           0
     12982 MEMB     97       POPC     H8X      HAL2     0.900000E-01   1.00800           0
     12983 MEMB     97       POPC     H8Y      HAL2     0.900000E-01   1.00800           0
     12984 MEMB     97       POPC     C39      CTL2    -0.180000       12.0110           0
     12985 MEMB     97       POPC     H9X      HAL2     0.900000E-01   1.00800           0
     12986 MEMB     97       POPC     H9Y      HAL2     0.900000E-01   1.00800           0
     12987 MEMB     97       POPC     C310     CTL2    -0.180000       12.0110           0
     12988 MEMB     97       POPC     H10X     HAL2     0.900000E-01   1.00800           0
     12989 MEMB     97       POPC     H10Y     HAL2     0.900000E-01   1.00800           0
     12990 MEMB     97       POPC     C311     CTL2    -0.180000       12.0110           0
     12991 MEMB     97       POPC     H11X     HAL2     0.900000E-01   1.00800           0
     12992 MEMB     97       POPC     H11Y     HAL2     0.900000E-01   1.00800           0
     12993 MEMB     97       POPC     C312     CTL2    -0.180000       12.0110           0
     12994 MEMB     97       POPC     H12X     HAL2     0.900000E-01   1.00800           0
     12995 MEMB     97       POPC     H12Y     HAL2     0.900000E-01   1.00800           0
     12996 MEMB     97       POPC     C313     CTL2    -0.180000       12.0110           0
     12997 MEMB     97       POPC     H13X     HAL2     0.900000E-01   1.00800           0
     12998 MEMB     97       POPC     H13Y     HAL2     0.900000E-01   1.00800           0
     12999 MEMB     97       POPC     C314     CTL2    -0.180000       12.0110           0
     13000 MEMB     97       POPC     H14X     HAL2     0.900000E-01   1.00800           0
     13001 MEMB     97       POPC     H14Y     HAL2     0.900000E-01   1.00800           0
     13002 MEMB     97       POPC     C315     CTL2    -0.180000       12.0110           0
     13003 MEMB     97       POPC     H15X     HAL2     0.900000E-01   1.00800           0
     13004 MEMB     97       POPC     H15Y     HAL2     0.900000E-01   1.00800           0
     13005 MEMB     97       POPC     C316     CTL3    -0.270000       12.0110           0
     13006 MEMB     97       POPC     H16X     HAL3     0.900000E-01   1.00800           0
     13007 MEMB     97       POPC     H16Y     HAL3     0.900000E-01   1.00800           0
     13008 MEMB     97       POPC     H16Z     HAL3     0.900000E-01   1.00800           0
     13009 MEMB     98       POPC     N        NTL     -0.600000       14.0070           0
     13010 MEMB     98       POPC     C12      CTL2    -0.100000       12.0110           0
     13011 MEMB     98       POPC     H12A     HL       0.250000       1.00800           0
     13012 MEMB     98       POPC     H12B     HL       0.250000       1.00800           0
     13013 MEMB     98       POPC     C13      CTL5    -0.350000       12.0110           0
     13014 MEMB     98       POPC     H13A     HL       0.250000       1.00800           0
     13015 MEMB     98       POPC     H13B     HL       0.250000       1.00800           0
     13016 MEMB     98       POPC     H13C     HL       0.250000       1.00800           0
     13017 MEMB     98       POPC     C14      CTL5    -0.350000       12.0110           0
     13018 MEMB     98       POPC     H14A     HL       0.250000       1.00800           0
     13019 MEMB     98       POPC     H14B     HL       0.250000       1.00800           0
     13020 MEMB     98       POPC     H14C     HL       0.250000       1.00800           0
     13021 MEMB     98       POPC     C15      CTL5    -0.350000       12.0110           0
     13022 MEMB     98       POPC     H15A     HL       0.250000       1.00800           0
     13023 MEMB     98       POPC     H15B     HL       0.250000       1.00800           0
     13024 MEMB     98       POPC     H15C     HL       0.250000       1.00800           0
     13025 MEMB     98       POPC     C11      CTL2    -0.800000E-01   12.0110           0
     13026 MEMB     98       POPC     H11A     HAL2     0.900000E-01   1.00800           0
     13027 MEMB     98       POPC     H11B     HAL2     0.900000E-01   1.00800           0
     13028 MEMB     98       POPC     P        PL       1.500000       30.9740           0
     13029 MEMB     98       POPC     O13      O2L     -0.780000       15.9994           0
     13030 MEMB     98       POPC     O14      O2L     -0.780000       15.9994           0
     13031 MEMB     98       POPC     O12      OSLP    -0.570000       15.9994           0
     13032 MEMB     98       POPC     O11      OSLP    -0.570000       15.9994           0
     13033 MEMB     98       POPC     C1       CTL2    -0.800000E-01   12.0110           0
     13034 MEMB     98       POPC     HA       HAL2     0.900000E-01   1.00800           0
     13035 MEMB     98       POPC     HB       HAL2     0.900000E-01   1.00800           0
     13036 MEMB     98       POPC     C2       CTL1     0.170000       12.0110           0
     13037 MEMB     98       POPC     HS       HAL1     0.900000E-01   1.00800           0
     13038 MEMB     98       POPC     O21      OSL     -0.490000       15.9994           0
     13039 MEMB     98       POPC     C21      CL       0.900000       12.0110           0
     13040 MEMB     98       POPC     O22      OBL     -0.630000       15.9994           0
     13041 MEMB     98       POPC     C22      CTL2    -0.220000       12.0110           0
     13042 MEMB     98       POPC     H2R      HAL2     0.900000E-01   1.00800           0
     13043 MEMB     98       POPC     H2S      HAL2     0.900000E-01   1.00800           0
     13044 MEMB     98       POPC     C3       CTL2     0.800000E-01   12.0110           0
     13045 MEMB     98       POPC     HX       HAL2     0.900000E-01   1.00800           0
     13046 MEMB     98       POPC     HY       HAL2     0.900000E-01   1.00800           0
     13047 MEMB     98       POPC     O31      OSL     -0.490000       15.9994           0
     13048 MEMB     98       POPC     C31      CL       0.900000       12.0110           0
     13049 MEMB     98       POPC     O32      OBL     -0.630000       15.9994           0
     13050 MEMB     98       POPC     C32      CTL2    -0.220000       12.0110           0
     13051 MEMB     98       POPC     H2X      HAL2     0.900000E-01   1.00800           0
     13052 MEMB     98       POPC     H2Y      HAL2     0.900000E-01   1.00800           0
     13053 MEMB     98       POPC     C23      CTL2    -0.180000       12.0110           0
     13054 MEMB     98       POPC     H3R      HAL2     0.900000E-01   1.00800           0
     13055 MEMB     98       POPC     H3S      HAL2     0.900000E-01   1.00800           0
     13056 MEMB     98       POPC     C24      CTL2    -0.180000       12.0110           0
     13057 MEMB     98       POPC     H4R      HAL2     0.900000E-01   1.00800           0
     13058 MEMB     98       POPC     H4S      HAL2     0.900000E-01   1.00800           0
     13059 MEMB     98       POPC     C25      CTL2    -0.180000       12.0110           0
     13060 MEMB     98       POPC     H5R      HAL2     0.900000E-01   1.00800           0
     13061 MEMB     98       POPC     H5S      HAL2     0.900000E-01   1.00800           0
     13062 MEMB     98       POPC     C26      CTL2    -0.180000       12.0110           0
     13063 MEMB     98       POPC     H6R      HAL2     0.900000E-01   1.00800           0
     13064 MEMB     98       POPC     H6S      HAL2     0.900000E-01   1.00800           0
     13065 MEMB     98       POPC     C27      CTL2    -0.180000       12.0110           0
     13066 MEMB     98       POPC     H7R      HAL2     0.900000E-01   1.00800           0
     13067 MEMB     98       POPC     H7S      HAL2     0.900000E-01   1.00800           0
     13068 MEMB     98       POPC     C28      CTL2    -0.180000       12.0110           0
     13069 MEMB     98       POPC     H8R      HAL2     0.900000E-01   1.00800           0
     13070 MEMB     98       POPC     H8S      HAL2     0.900000E-01   1.00800           0
     13071 MEMB     98       POPC     C29      CEL1    -0.150000       12.0110           0
     13072 MEMB     98       POPC     H91      HEL1     0.150000       1.00800           0
     13073 MEMB     98       POPC     C210     CEL1    -0.150000       12.0110           0
     13074 MEMB     98       POPC     H101     HEL1     0.150000       1.00800           0
     13075 MEMB     98       POPC     C211     CTL2    -0.180000       12.0110           0
     13076 MEMB     98       POPC     H11R     HAL2     0.900000E-01   1.00800           0
     13077 MEMB     98       POPC     H11S     HAL2     0.900000E-01   1.00800           0
     13078 MEMB     98       POPC     C212     CTL2    -0.180000       12.0110           0
     13079 MEMB     98       POPC     H12R     HAL2     0.900000E-01   1.00800           0
     13080 MEMB     98       POPC     H12S     HAL2     0.900000E-01   1.00800           0
     13081 MEMB     98       POPC     C213     CTL2    -0.180000       12.0110           0
     13082 MEMB     98       POPC     H13R     HAL2     0.900000E-01   1.00800           0
     13083 MEMB     98       POPC     H13S     HAL2     0.900000E-01   1.00800           0
     13084 MEMB     98       POPC     C214     CTL2    -0.180000       12.0110           0
     13085 MEMB     98       POPC     H14R     HAL2     0.900000E-01   1.00800           0
     13086 MEMB     98       POPC     H14S     HAL2     0.900000E-01   1.00800           0
     13087 MEMB     98       POPC     C215     CTL2    -0.180000       12.0110           0
     13088 MEMB     98       POPC     H15R     HAL2     0.900000E-01   1.00800           0
     13089 MEMB     98       POPC     H15S     HAL2     0.900000E-01   1.00800           0
     13090 MEMB     98       POPC     C216     CTL2    -0.180000       12.0110           0
     13091 MEMB     98       POPC     H16R     HAL2     0.900000E-01   1.00800           0
     13092 MEMB     98       POPC     H16S     HAL2     0.900000E-01   1.00800           0
     13093 MEMB     98       POPC     C217     CTL2    -0.180000       12.0110           0
     13094 MEMB     98       POPC     H17R     HAL2     0.900000E-01   1.00800           0
     13095 MEMB     98       POPC     H17S     HAL2     0.900000E-01   1.00800           0
     13096 MEMB     98       POPC     C218     CTL3    -0.270000       12.0110           0
     13097 MEMB     98       POPC     H18R     HAL3     0.900000E-01   1.00800           0
     13098 MEMB     98       POPC     H18S     HAL3     0.900000E-01   1.00800           0
     13099 MEMB     98       POPC     H18T     HAL3     0.900000E-01   1.00800           0
     13100 MEMB     98       POPC     C33      CTL2    -0.180000       12.0110           0
     13101 MEMB     98       POPC     H3X      HAL2     0.900000E-01   1.00800           0
     13102 MEMB     98       POPC     H3Y      HAL2     0.900000E-01   1.00800           0
     13103 MEMB     98       POPC     C34      CTL2    -0.180000       12.0110           0
     13104 MEMB     98       POPC     H4X      HAL2     0.900000E-01   1.00800           0
     13105 MEMB     98       POPC     H4Y      HAL2     0.900000E-01   1.00800           0
     13106 MEMB     98       POPC     C35      CTL2    -0.180000       12.0110           0
     13107 MEMB     98       POPC     H5X      HAL2     0.900000E-01   1.00800           0
     13108 MEMB     98       POPC     H5Y      HAL2     0.900000E-01   1.00800           0
     13109 MEMB     98       POPC     C36      CTL2    -0.180000       12.0110           0
     13110 MEMB     98       POPC     H6X      HAL2     0.900000E-01   1.00800           0
     13111 MEMB     98       POPC     H6Y      HAL2     0.900000E-01   1.00800           0
     13112 MEMB     98       POPC     C37      CTL2    -0.180000       12.0110           0
     13113 MEMB     98       POPC     H7X      HAL2     0.900000E-01   1.00800           0
     13114 MEMB     98       POPC     H7Y      HAL2     0.900000E-01   1.00800           0
     13115 MEMB     98       POPC     C38      CTL2    -0.180000       12.0110           0
     13116 MEMB     98       POPC     H8X      HAL2     0.900000E-01   1.00800           0
     13117 MEMB     98       POPC     H8Y      HAL2     0.900000E-01   1.00800           0
     13118 MEMB     98       POPC     C39      CTL2    -0.180000       12.0110           0
     13119 MEMB     98       POPC     H9X      HAL2     0.900000E-01   1.00800           0
     13120 MEMB     98       POPC     H9Y      HAL2     0.900000E-01   1.00800           0
     13121 MEMB     98       POPC     C310     CTL2    -0.180000       12.0110           0
     13122 MEMB     98       POPC     H10X     HAL2     0.900000E-01   1.00800           0
     13123 MEMB     98       POPC     H10Y     HAL2     0.900000E-01   1.00800           0
     13124 MEMB     98       POPC     C311     CTL2    -0.180000       12.0110           0
     13125 MEMB     98       POPC     H11X     HAL2     0.900000E-01   1.00800           0
     13126 MEMB     98       POPC     H11Y     HAL2     0.900000E-01   1.00800           0
     13127 MEMB     98       POPC     C312     CTL2    -0.180000       12.0110           0
     13128 MEMB     98       POPC     H12X     HAL2     0.900000E-01   1.00800           0
     13129 MEMB     98       POPC     H12Y     HAL2     0.900000E-01   1.00800           0
     13130 MEMB     98       POPC     C313     CTL2    -0.180000       12.0110           0
     13131 MEMB     98       POPC     H13X     HAL2     0.900000E-01   1.00800           0
     13132 MEMB     98       POPC     H13Y     HAL2     0.900000E-01   1.00800           0
     13133 MEMB     98       POPC     C314     CTL2    -0.180000       12.0110           0
     13134 MEMB     98       POPC     H14X     HAL2     0.900000E-01   1.00800           0
     13135 MEMB     98       POPC     H14Y     HAL2     0.900000E-01   1.00800           0
     13136 MEMB     98       POPC     C315     CTL2    -0.180000       12.0110           0
     13137 MEMB     98       POPC     H15X     HAL2     0.900000E-01   1.00800           0
     13138 MEMB     98       POPC     H15Y     HAL2     0.900000E-01   1.00800           0
     13139 MEMB     98       POPC     C316     CTL3    -0.270000       12.0110           0
     13140 MEMB     98       POPC     H16X     HAL3     0.900000E-01   1.00800           0
     13141 MEMB     98       POPC     H16Y     HAL3     0.900000E-01   1.00800           0
     13142 MEMB     98       POPC     H16Z     HAL3     0.900000E-01   1.00800           0
     13143 MEMB     99       POPC     N        NTL     -0.600000       14.0070           0
     13144 MEMB     99       POPC     C12      CTL2    -0.100000       12.0110           0
     13145 MEMB     99       POPC     H12A     HL       0.250000       1.00800           0
     13146 MEMB     99       POPC     H12B     HL       0.250000       1.00800           0
     13147 MEMB     99       POPC     C13      CTL5    -0.350000       12.0110           0
     13148 MEMB     99       POPC     H13A     HL       0.250000       1.00800           0
     13149 MEMB     99       POPC     H13B     HL       0.250000       1.00800           0
     13150 MEMB     99       POPC     H13C     HL       0.250000       1.00800           0
     13151 MEMB     99       POPC     C14      CTL5    -0.350000       12.0110           0
     13152 MEMB     99       POPC     H14A     HL       0.250000       1.00800           0
     13153 MEMB     99       POPC     H14B     HL       0.250000       1.00800           0
     13154 MEMB     99       POPC     H14C     HL       0.250000       1.00800           0
     13155 MEMB     99       POPC     C15      CTL5    -0.350000       12.0110           0
     13156 MEMB     99       POPC     H15A     HL       0.250000       1.00800           0
     13157 MEMB     99       POPC     H15B     HL       0.250000       1.00800           0
     13158 MEMB     99       POPC     H15C     HL       0.250000       1.00800           0
     13159 MEMB     99       POPC     C11      CTL2    -0.800000E-01   12.0110           0
     13160 MEMB     99       POPC     H11A     HAL2     0.900000E-01   1.00800           0
     13161 MEMB     99       POPC     H11B     HAL2     0.900000E-01   1.00800           0
     13162 MEMB     99       POPC     P        PL       1.500000       30.9740           0
     13163 MEMB     99       POPC     O13      O2L     -0.780000       15.9994           0
     13164 MEMB     99       POPC     O14      O2L     -0.780000       15.9994           0
     13165 MEMB     99       POPC     O12      OSLP    -0.570000       15.9994           0
     13166 MEMB     99       POPC     O11      OSLP    -0.570000       15.9994           0
     13167 MEMB     99       POPC     C1       CTL2    -0.800000E-01   12.0110           0
     13168 MEMB     99       POPC     HA       HAL2     0.900000E-01   1.00800           0
     13169 MEMB     99       POPC     HB       HAL2     0.900000E-01   1.00800           0
     13170 MEMB     99       POPC     C2       CTL1     0.170000       12.0110           0
     13171 MEMB     99       POPC     HS       HAL1     0.900000E-01   1.00800           0
     13172 MEMB     99       POPC     O21      OSL     -0.490000       15.9994           0
     13173 MEMB     99       POPC     C21      CL       0.900000       12.0110           0
     13174 MEMB     99       POPC     O22      OBL     -0.630000       15.9994           0
     13175 MEMB     99       POPC     C22      CTL2    -0.220000       12.0110           0
     13176 MEMB     99       POPC     H2R      HAL2     0.900000E-01   1.00800           0
     13177 MEMB     99       POPC     H2S      HAL2     0.900000E-01   1.00800           0
     13178 MEMB     99       POPC     C3       CTL2     0.800000E-01   12.0110           0
     13179 MEMB     99       POPC     HX       HAL2     0.900000E-01   1.00800           0
     13180 MEMB     99       POPC     HY       HAL2     0.900000E-01   1.00800           0
     13181 MEMB     99       POPC     O31      OSL     -0.490000       15.9994           0
     13182 MEMB     99       POPC     C31      CL       0.900000       12.0110           0
     13183 MEMB     99       POPC     O32      OBL     -0.630000       15.9994           0
     13184 MEMB     99       POPC     C32      CTL2    -0.220000       12.0110           0
     13185 MEMB     99       POPC     H2X      HAL2     0.900000E-01   1.00800           0
     13186 MEMB     99       POPC     H2Y      HAL2     0.900000E-01   1.00800           0
     13187 MEMB     99       POPC     C23      CTL2    -0.180000       12.0110           0
     13188 MEMB     99       POPC     H3R      HAL2     0.900000E-01   1.00800           0
     13189 MEMB     99       POPC     H3S      HAL2     0.900000E-01   1.00800           0
     13190 MEMB     99       POPC     C24      CTL2    -0.180000       12.0110           0
     13191 MEMB     99       POPC     H4R      HAL2     0.900000E-01   1.00800           0
     13192 MEMB     99       POPC     H4S      HAL2     0.900000E-01   1.00800           0
     13193 MEMB     99       POPC     C25      CTL2    -0.180000       12.0110           0
     13194 MEMB     99       POPC     H5R      HAL2     0.900000E-01   1.00800           0
     13195 MEMB     99       POPC     H5S      HAL2     0.900000E-01   1.00800           0
     13196 MEMB     99       POPC     C26      CTL2    -0.180000       12.0110           0
     13197 MEMB     99       POPC     H6R      HAL2     0.900000E-01   1.00800           0
     13198 MEMB     99       POPC     H6S      HAL2     0.900000E-01   1.00800           0
     13199 MEMB     99       POPC     C27      CTL2    -0.180000       12.0110           0
     13200 MEMB     99       POPC     H7R      HAL2     0.900000E-01   1.00800           0
     13201 MEMB     99       POPC     H7S      HAL2     0.900000E-01   1.00800           0
     13202 MEMB     99       POPC     C28      CTL2    -0.180000       12.0110           0
     13203 MEMB     99       POPC     H8R      HAL2     0.900000E-01   1.00800           0
     13204 MEMB     99       POPC     H8S      HAL2     0.900000E-01   1.00800           0
     13205 MEMB     99       POPC     C29      CEL1    -0.150000       12.0110           0
     13206 MEMB     99       POPC     H91      HEL1     0.150000       1.00800           0
     13207 MEMB     99       POPC     C210     CEL1    -0.150000       12.0110           0
     13208 MEMB     99       POPC     H101     HEL1     0.150000       1.00800           0
     13209 MEMB     99       POPC     C211     CTL2    -0.180000       12.0110           0
     13210 MEMB     99       POPC     H11R     HAL2     0.900000E-01   1.00800           0
     13211 MEMB     99       POPC     H11S     HAL2     0.900000E-01   1.00800           0
     13212 MEMB     99       POPC     C212     CTL2    -0.180000       12.0110           0
     13213 MEMB     99       POPC     H12R     HAL2     0.900000E-01   1.00800           0
     13214 MEMB     99       POPC     H12S     HAL2     0.900000E-01   1.00800           0
     13215 MEMB     99       POPC     C213     CTL2    -0.180000       12.0110           0
     13216 MEMB     99       POPC     H13R     HAL2     0.900000E-01   1.00800           0
     13217 MEMB     99       POPC     H13S     HAL2     0.900000E-01   1.00800           0
     13218 MEMB     99       POPC     C214     CTL2    -0.180000       12.0110           0
     13219 MEMB     99       POPC     H14R     HAL2     0.900000E-01   1.00800           0
     13220 MEMB     99       POPC     H14S     HAL2     0.900000E-01   1.00800           0
     13221 MEMB     99       POPC     C215     CTL2    -0.180000       12.0110           0
     13222 MEMB     99       POPC     H15R     HAL2     0.900000E-01   1.00800           0
     13223 MEMB     99       POPC     H15S     HAL2     0.900000E-01   1.00800           0
     13224 MEMB     99       POPC     C216     CTL2    -0.180000       12.0110           0
     13225 MEMB     99       POPC     H16R     HAL2     0.900000E-01   1.00800           0
     13226 MEMB     99       POPC     H16S     HAL2     0.900000E-01   1.00800           0
     13227 MEMB     99       POPC     C217     CTL2    -0.180000       12.0110           0
     13228 MEMB     99       POPC     H17R     HAL2     0.900000E-01   1.00800           0
     13229 MEMB     99       POPC     H17S     HAL2     0.900000E-01   1.00800           0
     13230 MEMB     99       POPC     C218     CTL3    -0.270000       12.0110           0
     13231 MEMB     99       POPC     H18R     HAL3     0.900000E-01   1.00800           0
     13232 MEMB     99       POPC     H18S     HAL3     0.900000E-01   1.00800           0
     13233 MEMB     99       POPC     H18T     HAL3     0.900000E-01   1.00800           0
     13234 MEMB     99       POPC     C33      CTL2    -0.180000       12.0110           0
     13235 MEMB     99       POPC     H3X      HAL2     0.900000E-01   1.00800           0
     13236 MEMB     99       POPC     H3Y      HAL2     0.900000E-01   1.00800           0
     13237 MEMB     99       POPC     C34      CTL2    -0.180000       12.0110           0
     13238 MEMB     99       POPC     H4X      HAL2     0.900000E-01   1.00800           0
     13239 MEMB     99       POPC     H4Y      HAL2     0.900000E-01   1.00800           0
     13240 MEMB     99       POPC     C35      CTL2    -0.180000       12.0110           0
     13241 MEMB     99       POPC     H5X      HAL2     0.900000E-01   1.00800           0
     13242 MEMB     99       POPC     H5Y      HAL2     0.900000E-01   1.00800           0
     13243 MEMB     99       POPC     C36      CTL2    -0.180000       12.0110           0
     13244 MEMB     99       POPC     H6X      HAL2     0.900000E-01   1.00800           0
     13245 MEMB     99       POPC     H6Y      HAL2     0.900000E-01   1.00800           0
     13246 MEMB     99       POPC     C37      CTL2    -0.180000       12.0110           0
     13247 MEMB     99       POPC     H7X      HAL2     0.900000E-01   1.00800           0
     13248 MEMB     99       POPC     H7Y      HAL2     0.900000E-01   1.00800           0
     13249 MEMB     99       POPC     C38      CTL2    -0.180000       12.0110           0
     13250 MEMB     99       POPC     H8X      HAL2     0.900000E-01   1.00800           0
     13251 MEMB     99       POPC     H8Y      HAL2     0.900000E-01   1.00800           0
     13252 MEMB     99       POPC     C39      CTL2    -0.180000       12.0110           0
     13253 MEMB     99       POPC     H9X      HAL2     0.900000E-01   1.00800           0
     13254 MEMB     99       POPC     H9Y      HAL2     0.900000E-01   1.00800           0
     13255 MEMB     99       POPC     C310     CTL2    -0.180000       12.0110           0
     13256 MEMB     99       POPC     H10X     HAL2     0.900000E-01   1.00800           0
     13257 MEMB     99       POPC     H10Y     HAL2     0.900000E-01   1.00800           0
     13258 MEMB     99       POPC     C311     CTL2    -0.180000       12.0110           0
     13259 MEMB     99       POPC     H11X     HAL2     0.900000E-01   1.00800           0
     13260 MEMB     99       POPC     H11Y     HAL2     0.900000E-01   1.00800           0
     13261 MEMB     99       POPC     C312     CTL2    -0.180000       12.0110           0
     13262 MEMB     99       POPC     H12X     HAL2     0.900000E-01   1.00800           0
     13263 MEMB     99       POPC     H12Y     HAL2     0.900000E-01   1.00800           0
     13264 MEMB     99       POPC     C313     CTL2    -0.180000       12.0110           0
     13265 MEMB     99       POPC     H13X     HAL2     0.900000E-01   1.00800           0
     13266 MEMB     99       POPC     H13Y     HAL2     0.900000E-01   1.00800           0
     13267 MEMB     99       POPC     C314     CTL2    -0.180000       12.0110           0
     13268 MEMB     99       POPC     H14X     HAL2     0.900000E-01   1.00800           0
     13269 MEMB     99       POPC     H14Y     HAL2     0.900000E-01   1.00800           0
     13270 MEMB     99       POPC     C315     CTL2    -0.180000       12.0110           0
     13271 MEMB     99       POPC     H15X     HAL2     0.900000E-01   1.00800           0
     13272 MEMB     99       POPC     H15Y     HAL2     0.900000E-01   1.00800           0
     13273 MEMB     99       POPC     C316     CTL3    -0.270000       12.0110           0
     13274 MEMB     99       POPC     H16X     HAL3     0.900000E-01   1.00800           0
     13275 MEMB     99       POPC     H16Y     HAL3     0.900000E-01   1.00800           0
     13276 MEMB     99       POPC     H16Z     HAL3     0.900000E-01   1.00800           0
     13277 MEMB     100      POPC     N        NTL     -0.600000       14.0070           0
     13278 MEMB     100      POPC     C12      CTL2    -0.100000       12.0110           0
     13279 MEMB     100      POPC     H12A     HL       0.250000       1.00800           0
     13280 MEMB     100      POPC     H12B     HL       0.250000       1.00800           0
     13281 MEMB     100      POPC     C13      CTL5    -0.350000       12.0110           0
     13282 MEMB     100      POPC     H13A     HL       0.250000       1.00800           0
     13283 MEMB     100      POPC     H13B     HL       0.250000       1.00800           0
     13284 MEMB     100      POPC     H13C     HL       0.250000       1.00800           0
     13285 MEMB     100      POPC     C14      CTL5    -0.350000       12.0110           0
     13286 MEMB     100      POPC     H14A     HL       0.250000       1.00800           0
     13287 MEMB     100      POPC     H14B     HL       0.250000       1.00800           0
     13288 MEMB     100      POPC     H14C     HL       0.250000       1.00800           0
     13289 MEMB     100      POPC     C15      CTL5    -0.350000       12.0110           0
     13290 MEMB     100      POPC     H15A     HL       0.250000       1.00800           0
     13291 MEMB     100      POPC     H15B     HL       0.250000       1.00800           0
     13292 MEMB     100      POPC     H15C     HL       0.250000       1.00800           0
     13293 MEMB     100      POPC     C11      CTL2    -0.800000E-01   12.0110           0
     13294 MEMB     100      POPC     H11A     HAL2     0.900000E-01   1.00800           0
     13295 MEMB     100      POPC     H11B     HAL2     0.900000E-01   1.00800           0
     13296 MEMB     100      POPC     P        PL       1.500000       30.9740           0
     13297 MEMB     100      POPC     O13      O2L     -0.780000       15.9994           0
     13298 MEMB     100      POPC     O14      O2L     -0.780000       15.9994           0
     13299 MEMB     100      POPC     O12      OSLP    -0.570000       15.9994           0
     13300 MEMB     100      POPC     O11      OSLP    -0.570000       15.9994           0
     13301 MEMB     100      POPC     C1       CTL2    -0.800000E-01   12.0110           0
     13302 MEMB     100      POPC     HA       HAL2     0.900000E-01   1.00800           0
     13303 MEMB     100      POPC     HB       HAL2     0.900000E-01   1.00800           0
     13304 MEMB     100      POPC     C2       CTL1     0.170000       12.0110           0
     13305 MEMB     100      POPC     HS       HAL1     0.900000E-01   1.00800           0
     13306 MEMB     100      POPC     O21      OSL     -0.490000       15.9994           0
     13307 MEMB     100      POPC     C21      CL       0.900000       12.0110           0
     13308 MEMB     100      POPC     O22      OBL     -0.630000       15.9994           0
     13309 MEMB     100      POPC     C22      CTL2    -0.220000       12.0110           0
     13310 MEMB     100      POPC     H2R      HAL2     0.900000E-01   1.00800           0
     13311 MEMB     100      POPC     H2S      HAL2     0.900000E-01   1.00800           0
     13312 MEMB     100      POPC     C3       CTL2     0.800000E-01   12.0110           0
     13313 MEMB     100      POPC     HX       HAL2     0.900000E-01   1.00800           0
     13314 MEMB     100      POPC     HY       HAL2     0.900000E-01   1.00800           0
     13315 MEMB     100      POPC     O31      OSL     -0.490000       15.9994           0
     13316 MEMB     100      POPC     C31      CL       0.900000       12.0110           0
     13317 MEMB     100      POPC     O32      OBL     -0.630000       15.9994           0
     13318 MEMB     100      POPC     C32      CTL2    -0.220000       12.0110           0
     13319 MEMB     100      POPC     H2X      HAL2     0.900000E-01   1.00800           0
     13320 MEMB     100      POPC     H2Y      HAL2     0.900000E-01   1.00800           0
     13321 MEMB     100      POPC     C23      CTL2    -0.180000       12.0110           0
     13322 MEMB     100      POPC     H3R      HAL2     0.900000E-01   1.00800           0
     13323 MEMB     100      POPC     H3S      HAL2     0.900000E-01   1.00800           0
     13324 MEMB     100      POPC     C24      CTL2    -0.180000       12.0110           0
     13325 MEMB     100      POPC     H4R      HAL2     0.900000E-01   1.00800           0
     13326 MEMB     100      POPC     H4S      HAL2     0.900000E-01   1.00800           0
     13327 MEMB     100      POPC     C25      CTL2    -0.180000       12.0110           0
     13328 MEMB     100      POPC     H5R      HAL2     0.900000E-01   1.00800           0
     13329 MEMB     100      POPC     H5S      HAL2     0.900000E-01   1.00800           0
     13330 MEMB     100      POPC     C26      CTL2    -0.180000       12.0110           0
     13331 MEMB     100      POPC     H6R      HAL2     0.900000E-01   1.00800           0
     13332 MEMB     100      POPC     H6S      HAL2     0.900000E-01   1.00800           0
     13333 MEMB     100      POPC     C27      CTL2    -0.180000       12.0110           0
     13334 MEMB     100      POPC     H7R      HAL2     0.900000E-01   1.00800           0
     13335 MEMB     100      POPC     H7S      HAL2     0.900000E-01   1.00800           0
     13336 MEMB     100      POPC     C28      CTL2    -0.180000       12.0110           0
     13337 MEMB     100      POPC     H8R      HAL2     0.900000E-01   1.00800           0
     13338 MEMB     100      POPC     H8S      HAL2     0.900000E-01   1.00800           0
     13339 MEMB     100      POPC     C29      CEL1    -0.150000       12.0110           0
     13340 MEMB     100      POPC     H91      HEL1     0.150000       1.00800           0
     13341 MEMB     100      POPC     C210     CEL1    -0.150000       12.0110           0
     13342 MEMB     100      POPC     H101     HEL1     0.150000       1.00800           0
     13343 MEMB     100      POPC     C211     CTL2    -0.180000       12.0110           0
     13344 MEMB     100      POPC     H11R     HAL2     0.900000E-01   1.00800           0
     13345 MEMB     100      POPC     H11S     HAL2     0.900000E-01   1.00800           0
     13346 MEMB     100      POPC     C212     CTL2    -0.180000       12.0110           0
     13347 MEMB     100      POPC     H12R     HAL2     0.900000E-01   1.00800           0
     13348 MEMB     100      POPC     H12S     HAL2     0.900000E-01   1.00800           0
     13349 MEMB     100      POPC     C213     CTL2    -0.180000       12.0110           0
     13350 MEMB     100      POPC     H13R     HAL2     0.900000E-01   1.00800           0
     13351 MEMB     100      POPC     H13S     HAL2     0.900000E-01   1.00800           0
     13352 MEMB     100      POPC     C214     CTL2    -0.180000       12.0110           0
     13353 MEMB     100      POPC     H14R     HAL2     0.900000E-01   1.00800           0
     13354 MEMB     100      POPC     H14S     HAL2     0.900000E-01   1.00800           0
     13355 MEMB     100      POPC     C215     CTL2    -0.180000       12.0110           0
     13356 MEMB     100      POPC     H15R     HAL2     0.900000E-01   1.00800           0
     13357 MEMB     100      POPC     H15S     HAL2     0.900000E-01   1.00800           0
     13358 MEMB     100      POPC     C216     CTL2    -0.180000       12.0110           0
     13359 MEMB     100      POPC     H16R     HAL2     0.900000E-01   1.00800           0
     13360 MEMB     100      POPC     H16S     HAL2     0.900000E-01   1.00800           0
     13361 MEMB     100      POPC     C217     CTL2    -0.180000       12.0110           0
     13362 MEMB     100      POPC     H17R     HAL2     0.900000E-01   1.00800           0
     13363 MEMB     100      POPC     H17S     HAL2     0.900000E-01   1.00800           0
     13364 MEMB     100      POPC     C218     CTL3    -0.270000       12.0110           0
     13365 MEMB     100      POPC     H18R     HAL3     0.900000E-01   1.00800           0
     13366 MEMB     100      POPC     H18S     HAL3     0.900000E-01   1.00800           0
     13367 MEMB     100      POPC     H18T     HAL3     0.900000E-01   1.00800           0
     13368 MEMB     100      POPC     C33      CTL2    -0.180000       12.0110           0
     13369 MEMB     100      POPC     H3X      HAL2     0.900000E-01   1.00800           0
     13370 MEMB     100      POPC     H3Y      HAL2     0.900000E-01   1.00800           0
     13371 MEMB     100      POPC     C34      CTL2    -0.180000       12.0110           0
     13372 MEMB     100      POPC     H4X      HAL2     0.900000E-01   1.00800           0
     13373 MEMB     100      POPC     H4Y      HAL2     0.900000E-01   1.00800           0
     13374 MEMB     100      POPC     C35      CTL2    -0.180000       12.0110           0
     13375 MEMB     100      POPC     H5X      HAL2     0.900000E-01   1.00800           0
     13376 MEMB     100      POPC     H5Y      HAL2     0.900000E-01   1.00800           0
     13377 MEMB     100      POPC     C36      CTL2    -0.180000       12.0110           0
     13378 MEMB     100      POPC     H6X      HAL2     0.900000E-01   1.00800           0
     13379 MEMB     100      POPC     H6Y      HAL2     0.900000E-01   1.00800           0
     13380 MEMB     100      POPC     C37      CTL2    -0.180000       12.0110           0
     13381 MEMB     100      POPC     H7X      HAL2     0.900000E-01   1.00800           0
     13382 MEMB     100      POPC     H7Y      HAL2     0.900000E-01   1.00800           0
     13383 MEMB     100      POPC     C38      CTL2    -0.180000       12.0110           0
     13384 MEMB     100      POPC     H8X      HAL2     0.900000E-01   1.00800           0
     13385 MEMB     100      POPC     H8Y      HAL2     0.900000E-01   1.00800           0
     13386 MEMB     100      POPC     C39      CTL2    -0.180000       12.0110           0
     13387 MEMB     100      POPC     H9X      HAL2     0.900000E-01   1.00800           0
     13388 MEMB     100      POPC     H9Y      HAL2     0.900000E-01   1.00800           0
     13389 MEMB     100      POPC     C310     CTL2    -0.180000       12.0110           0
     13390 MEMB     100      POPC     H10X     HAL2     0.900000E-01   1.00800           0
     13391 MEMB     100      POPC     H10Y     HAL2     0.900000E-01   1.00800           0
     13392 MEMB     100      POPC     C311     CTL2    -0.180000       12.0110           0
     13393 MEMB     100      POPC     H11X     HAL2     0.900000E-01   1.00800           0
     13394 MEMB     100      POPC     H11Y     HAL2     0.900000E-01   1.00800           0
     13395 MEMB     100      POPC     C312     CTL2    -0.180000       12.0110           0
     13396 MEMB     100      POPC     H12X     HAL2     0.900000E-01   1.00800           0
     13397 MEMB     100      POPC     H12Y     HAL2     0.900000E-01   1.00800           0
     13398 MEMB     100      POPC     C313     CTL2    -0.180000       12.0110           0
     13399 MEMB     100      POPC     H13X     HAL2     0.900000E-01   1.00800           0
     13400 MEMB     100      POPC     H13Y     HAL2     0.900000E-01   1.00800           0
     13401 MEMB     100      POPC     C314     CTL2    -0.180000       12.0110           0
     13402 MEMB     100      POPC     H14X     HAL2     0.900000E-01   1.00800           0
     13403 MEMB     100      POPC     H14Y     HAL2     0.900000E-01   1.00800           0
     13404 MEMB     100      POPC     C315     CTL2    -0.180000       12.0110           0
     13405 MEMB     100      POPC     H15X     HAL2     0.900000E-01   1.00800           0
     13406 MEMB     100      POPC     H15Y     HAL2     0.900000E-01   1.00800           0
     13407 MEMB     100      POPC     C316     CTL3    -0.270000       12.0110           0
     13408 MEMB     100      POPC     H16X     HAL3     0.900000E-01   1.00800           0
     13409 MEMB     100      POPC     H16Y     HAL3     0.900000E-01   1.00800           0
     13410 MEMB     100      POPC     H16Z     HAL3     0.900000E-01   1.00800           0
     13411 MEMB     101      POPC     N        NTL     -0.600000       14.0070           0
     13412 MEMB     101      POPC     C12      CTL2    -0.100000       12.0110           0
     13413 MEMB     101      POPC     H12A     HL       0.250000       1.00800           0
     13414 MEMB     101      POPC     H12B     HL       0.250000       1.00800           0
     13415 MEMB     101      POPC     C13      CTL5    -0.350000       12.0110           0
     13416 MEMB     101      POPC     H13A     HL       0.250000       1.00800           0
     13417 MEMB     101      POPC     H13B     HL       0.250000       1.00800           0
     13418 MEMB     101      POPC     H13C     HL       0.250000       1.00800           0
     13419 MEMB     101      POPC     C14      CTL5    -0.350000       12.0110           0
     13420 MEMB     101      POPC     H14A     HL       0.250000       1.00800           0
     13421 MEMB     101      POPC     H14B     HL       0.250000       1.00800           0
     13422 MEMB     101      POPC     H14C     HL       0.250000       1.00800           0
     13423 MEMB     101      POPC     C15      CTL5    -0.350000       12.0110           0
     13424 MEMB     101      POPC     H15A     HL       0.250000       1.00800           0
     13425 MEMB     101      POPC     H15B     HL       0.250000       1.00800           0
     13426 MEMB     101      POPC     H15C     HL       0.250000       1.00800           0
     13427 MEMB     101      POPC     C11      CTL2    -0.800000E-01   12.0110           0
     13428 MEMB     101      POPC     H11A     HAL2     0.900000E-01   1.00800           0
     13429 MEMB     101      POPC     H11B     HAL2     0.900000E-01   1.00800           0
     13430 MEMB     101      POPC     P        PL       1.500000       30.9740           0
     13431 MEMB     101      POPC     O13      O2L     -0.780000       15.9994           0
     13432 MEMB     101      POPC     O14      O2L     -0.780000       15.9994           0
     13433 MEMB     101      POPC     O12      OSLP    -0.570000       15.9994           0
     13434 MEMB     101      POPC     O11      OSLP    -0.570000       15.9994           0
     13435 MEMB     101      POPC     C1       CTL2    -0.800000E-01   12.0110           0
     13436 MEMB     101      POPC     HA       HAL2     0.900000E-01   1.00800           0
     13437 MEMB     101      POPC     HB       HAL2     0.900000E-01   1.00800           0
     13438 MEMB     101      POPC     C2       CTL1     0.170000       12.0110           0
     13439 MEMB     101      POPC     HS       HAL1     0.900000E-01   1.00800           0
     13440 MEMB     101      POPC     O21      OSL     -0.490000       15.9994           0
     13441 MEMB     101      POPC     C21      CL       0.900000       12.0110           0
     13442 MEMB     101      POPC     O22      OBL     -0.630000       15.9994           0
     13443 MEMB     101      POPC     C22      CTL2    -0.220000       12.0110           0
     13444 MEMB     101      POPC     H2R      HAL2     0.900000E-01   1.00800           0
     13445 MEMB     101      POPC     H2S      HAL2     0.900000E-01   1.00800           0
     13446 MEMB     101      POPC     C3       CTL2     0.800000E-01   12.0110           0
     13447 MEMB     101      POPC     HX       HAL2     0.900000E-01   1.00800           0
     13448 MEMB     101      POPC     HY       HAL2     0.900000E-01   1.00800           0
     13449 MEMB     101      POPC     O31      OSL     -0.490000       15.9994           0
     13450 MEMB     101      POPC     C31      CL       0.900000       12.0110           0
     13451 MEMB     101      POPC     O32      OBL     -0.630000       15.9994           0
     13452 MEMB     101      POPC     C32      CTL2    -0.220000       12.0110           0
     13453 MEMB     101      POPC     H2X      HAL2     0.900000E-01   1.00800           0
     13454 MEMB     101      POPC     H2Y      HAL2     0.900000E-01   1.00800           0
     13455 MEMB     101      POPC     C23      CTL2    -0.180000       12.0110           0
     13456 MEMB     101      POPC     H3R      HAL2     0.900000E-01   1.00800           0
     13457 MEMB     101      POPC     H3S      HAL2     0.900000E-01   1.00800           0
     13458 MEMB     101      POPC     C24      CTL2    -0.180000       12.0110           0
     13459 MEMB     101      POPC     H4R      HAL2     0.900000E-01   1.00800           0
     13460 MEMB     101      POPC     H4S      HAL2     0.900000E-01   1.00800           0
     13461 MEMB     101      POPC     C25      CTL2    -0.180000       12.0110           0
     13462 MEMB     101      POPC     H5R      HAL2     0.900000E-01   1.00800           0
     13463 MEMB     101      POPC     H5S      HAL2     0.900000E-01   1.00800           0
     13464 MEMB     101      POPC     C26      CTL2    -0.180000       12.0110           0
     13465 MEMB     101      POPC     H6R      HAL2     0.900000E-01   1.00800           0
     13466 MEMB     101      POPC     H6S      HAL2     0.900000E-01   1.00800           0
     13467 MEMB     101      POPC     C27      CTL2    -0.180000       12.0110           0
     13468 MEMB     101      POPC     H7R      HAL2     0.900000E-01   1.00800           0
     13469 MEMB     101      POPC     H7S      HAL2     0.900000E-01   1.00800           0
     13470 MEMB     101      POPC     C28      CTL2    -0.180000       12.0110           0
     13471 MEMB     101      POPC     H8R      HAL2     0.900000E-01   1.00800           0
     13472 MEMB     101      POPC     H8S      HAL2     0.900000E-01   1.00800           0
     13473 MEMB     101      POPC     C29      CEL1    -0.150000       12.0110           0
     13474 MEMB     101      POPC     H91      HEL1     0.150000       1.00800           0
     13475 MEMB     101      POPC     C210     CEL1    -0.150000       12.0110           0
     13476 MEMB     101      POPC     H101     HEL1     0.150000       1.00800           0
     13477 MEMB     101      POPC     C211     CTL2    -0.180000       12.0110           0
     13478 MEMB     101      POPC     H11R     HAL2     0.900000E-01   1.00800           0
     13479 MEMB     101      POPC     H11S     HAL2     0.900000E-01   1.00800           0
     13480 MEMB     101      POPC     C212     CTL2    -0.180000       12.0110           0
     13481 MEMB     101      POPC     H12R     HAL2     0.900000E-01   1.00800           0
     13482 MEMB     101      POPC     H12S     HAL2     0.900000E-01   1.00800           0
     13483 MEMB     101      POPC     C213     CTL2    -0.180000       12.0110           0
     13484 MEMB     101      POPC     H13R     HAL2     0.900000E-01   1.00800           0
     13485 MEMB     101      POPC     H13S     HAL2     0.900000E-01   1.00800           0
     13486 MEMB     101      POPC     C214     CTL2    -0.180000       12.0110           0
     13487 MEMB     101      POPC     H14R     HAL2     0.900000E-01   1.00800           0
     13488 MEMB     101      POPC     H14S     HAL2     0.900000E-01   1.00800           0
     13489 MEMB     101      POPC     C215     CTL2    -0.180000       12.0110           0
     13490 MEMB     101      POPC     H15R     HAL2     0.900000E-01   1.00800           0
     13491 MEMB     101      POPC     H15S     HAL2     0.900000E-01   1.00800           0
     13492 MEMB     101      POPC     C216     CTL2    -0.180000       12.0110           0
     13493 MEMB     101      POPC     H16R     HAL2     0.900000E-01   1.00800           0
     13494 MEMB     101      POPC     H16S     HAL2     0.900000E-01   1.00800           0
     13495 MEMB     101      POPC     C217     CTL2    -0.180000       12.0110           0
     13496 MEMB     101      POPC     H17R     HAL2     0.900000E-01   1.00800           0
     13497 MEMB     101      POPC     H17S     HAL2     0.900000E-01   1.00800           0
     13498 MEMB     101      POPC     C218     CTL3    -0.270000       12.0110           0
     13499 MEMB     101      POPC     H18R     HAL3     0.900000E-01   1.00800           0
     13500 MEMB     101      POPC     H18S     HAL3     0.900000E-01   1.00800           0
     13501 MEMB     101      POPC     H18T     HAL3     0.900000E-01   1.00800           0
     13502 MEMB     101      POPC     C33      CTL2    -0.180000       12.0110           0
     13503 MEMB     101      POPC     H3X      HAL2     0.900000E-01   1.00800           0
     13504 MEMB     101      POPC     H3Y      HAL2     0.900000E-01   1.00800           0
     13505 MEMB     101      POPC     C34      CTL2    -0.180000       12.0110           0
     13506 MEMB     101      POPC     H4X      HAL2     0.900000E-01   1.00800           0
     13507 MEMB     101      POPC     H4Y      HAL2     0.900000E-01   1.00800           0
     13508 MEMB     101      POPC     C35      CTL2    -0.180000       12.0110           0
     13509 MEMB     101      POPC     H5X      HAL2     0.900000E-01   1.00800           0
     13510 MEMB     101      POPC     H5Y      HAL2     0.900000E-01   1.00800           0
     13511 MEMB     101      POPC     C36      CTL2    -0.180000       12.0110           0
     13512 MEMB     101      POPC     H6X      HAL2     0.900000E-01   1.00800           0
     13513 MEMB     101      POPC     H6Y      HAL2     0.900000E-01   1.00800           0
     13514 MEMB     101      POPC     C37      CTL2    -0.180000       12.0110           0
     13515 MEMB     101      POPC     H7X      HAL2     0.900000E-01   1.00800           0
     13516 MEMB     101      POPC     H7Y      HAL2     0.900000E-01   1.00800           0
     13517 MEMB     101      POPC     C38      CTL2    -0.180000       12.0110           0
     13518 MEMB     101      POPC     H8X      HAL2     0.900000E-01   1.00800           0
     13519 MEMB     101      POPC     H8Y      HAL2     0.900000E-01   1.00800           0
     13520 MEMB     101      POPC     C39      CTL2    -0.180000       12.0110           0
     13521 MEMB     101      POPC     H9X      HAL2     0.900000E-01   1.00800           0
     13522 MEMB     101      POPC     H9Y      HAL2     0.900000E-01   1.00800           0
     13523 MEMB     101      POPC     C310     CTL2    -0.180000       12.0110           0
     13524 MEMB     101      POPC     H10X     HAL2     0.900000E-01   1.00800           0
     13525 MEMB     101      POPC     H10Y     HAL2     0.900000E-01   1.00800           0
     13526 MEMB     101      POPC     C311     CTL2    -0.180000       12.0110           0
     13527 MEMB     101      POPC     H11X     HAL2     0.900000E-01   1.00800           0
     13528 MEMB     101      POPC     H11Y     HAL2     0.900000E-01   1.00800           0
     13529 MEMB     101      POPC     C312     CTL2    -0.180000       12.0110           0
     13530 MEMB     101      POPC     H12X     HAL2     0.900000E-01   1.00800           0
     13531 MEMB     101      POPC     H12Y     HAL2     0.900000E-01   1.00800           0
     13532 MEMB     101      POPC     C313     CTL2    -0.180000       12.0110           0
     13533 MEMB     101      POPC     H13X     HAL2     0.900000E-01   1.00800           0
     13534 MEMB     101      POPC     H13Y     HAL2     0.900000E-01   1.00800           0
     13535 MEMB     101      POPC     C314     CTL2    -0.180000       12.0110           0
     13536 MEMB     101      POPC     H14X     HAL2     0.900000E-01   1.00800           0
     13537 MEMB     101      POPC     H14Y     HAL2     0.900000E-01   1.00800           0
     13538 MEMB     101      POPC     C315     CTL2    -0.180000       12.0110           0
     13539 MEMB     101      POPC     H15X     HAL2     0.900000E-01   1.00800           0
     13540 MEMB     101      POPC     H15Y     HAL2     0.900000E-01   1.00800           0
     13541 MEMB     101      POPC     C316     CTL3    -0.270000       12.0110           0
     13542 MEMB     101      POPC     H16X     HAL3     0.900000E-01   1.00800           0
     13543 MEMB     101      POPC     H16Y     HAL3     0.900000E-01   1.00800           0
     13544 MEMB     101      POPC     H16Z     HAL3     0.900000E-01   1.00800           0
     13545 MEMB     102      POPS     N        NH3L    -0.300000       14.0070           0
     13546 MEMB     102      POPS     HN1      HCL      0.330000       1.00800           0
     13547 MEMB     102      POPS     HN2      HCL      0.330000       1.00800           0
     13548 MEMB     102      POPS     HN3      HCL      0.330000       1.00800           0
     13549 MEMB     102      POPS     C12      CTL1     0.210000       12.0110           0
     13550 MEMB     102      POPS     H12A     HBL      0.100000       1.00800           0
     13551 MEMB     102      POPS     C13      CCL      0.340000       12.0110           0
     13552 MEMB     102      POPS     O13A     OCL     -0.670000       15.9994           0
     13553 MEMB     102      POPS     O13B     OCL     -0.670000       15.9994           0
     13554 MEMB     102      POPS     C11      CTL2    -0.800000E-01   12.0110           0
     13555 MEMB     102      POPS     H11A     HAL2     0.900000E-01   1.00800           0
     13556 MEMB     102      POPS     H11B     HAL2     0.900000E-01   1.00800           0
     13557 MEMB     102      POPS     P        PL       1.500000       30.9740           0
     13558 MEMB     102      POPS     O13      O2L     -0.780000       15.9994           0
     13559 MEMB     102      POPS     O14      O2L     -0.780000       15.9994           0
     13560 MEMB     102      POPS     O12      OSLP    -0.570000       15.9994           0
     13561 MEMB     102      POPS     O11      OSLP    -0.570000       15.9994           0
     13562 MEMB     102      POPS     C1       CTL2    -0.800000E-01   12.0110           0
     13563 MEMB     102      POPS     HA       HAL2     0.900000E-01   1.00800           0
     13564 MEMB     102      POPS     HB       HAL2     0.900000E-01   1.00800           0
     13565 MEMB     102      POPS     C2       CTL1     0.170000       12.0110           0
     13566 MEMB     102      POPS     HS       HAL1     0.900000E-01   1.00800           0
     13567 MEMB     102      POPS     O21      OSL     -0.490000       15.9994           0
     13568 MEMB     102      POPS     C21      CL       0.900000       12.0110           0
     13569 MEMB     102      POPS     O22      OBL     -0.630000       15.9994           0
     13570 MEMB     102      POPS     C22      CTL2    -0.220000       12.0110           0
     13571 MEMB     102      POPS     H2R      HAL2     0.900000E-01   1.00800           0
     13572 MEMB     102      POPS     H2S      HAL2     0.900000E-01   1.00800           0
     13573 MEMB     102      POPS     C3       CTL2     0.800000E-01   12.0110           0
     13574 MEMB     102      POPS     HX       HAL2     0.900000E-01   1.00800           0
     13575 MEMB     102      POPS     HY       HAL2     0.900000E-01   1.00800           0
     13576 MEMB     102      POPS     O31      OSL     -0.490000       15.9994           0
     13577 MEMB     102      POPS     C31      CL       0.900000       12.0110           0
     13578 MEMB     102      POPS     O32      OBL     -0.630000       15.9994           0
     13579 MEMB     102      POPS     C32      CTL2    -0.220000       12.0110           0
     13580 MEMB     102      POPS     H2X      HAL2     0.900000E-01   1.00800           0
     13581 MEMB     102      POPS     H2Y      HAL2     0.900000E-01   1.00800           0
     13582 MEMB     102      POPS     C23      CTL2    -0.180000       12.0110           0
     13583 MEMB     102      POPS     H3R      HAL2     0.900000E-01   1.00800           0
     13584 MEMB     102      POPS     H3S      HAL2     0.900000E-01   1.00800           0
     13585 MEMB     102      POPS     C24      CTL2    -0.180000       12.0110           0
     13586 MEMB     102      POPS     H4R      HAL2     0.900000E-01   1.00800           0
     13587 MEMB     102      POPS     H4S      HAL2     0.900000E-01   1.00800           0
     13588 MEMB     102      POPS     C25      CTL2    -0.180000       12.0110           0
     13589 MEMB     102      POPS     H5R      HAL2     0.900000E-01   1.00800           0
     13590 MEMB     102      POPS     H5S      HAL2     0.900000E-01   1.00800           0
     13591 MEMB     102      POPS     C26      CTL2    -0.180000       12.0110           0
     13592 MEMB     102      POPS     H6R      HAL2     0.900000E-01   1.00800           0
     13593 MEMB     102      POPS     H6S      HAL2     0.900000E-01   1.00800           0
     13594 MEMB     102      POPS     C27      CTL2    -0.180000       12.0110           0
     13595 MEMB     102      POPS     H7R      HAL2     0.900000E-01   1.00800           0
     13596 MEMB     102      POPS     H7S      HAL2     0.900000E-01   1.00800           0
     13597 MEMB     102      POPS     C28      CTL2    -0.180000       12.0110           0
     13598 MEMB     102      POPS     H8R      HAL2     0.900000E-01   1.00800           0
     13599 MEMB     102      POPS     H8S      HAL2     0.900000E-01   1.00800           0
     13600 MEMB     102      POPS     C29      CEL1    -0.150000       12.0110           0
     13601 MEMB     102      POPS     H91      HEL1     0.150000       1.00800           0
     13602 MEMB     102      POPS     C210     CEL1    -0.150000       12.0110           0
     13603 MEMB     102      POPS     H101     HEL1     0.150000       1.00800           0
     13604 MEMB     102      POPS     C211     CTL2    -0.180000       12.0110           0
     13605 MEMB     102      POPS     H11R     HAL2     0.900000E-01   1.00800           0
     13606 MEMB     102      POPS     H11S     HAL2     0.900000E-01   1.00800           0
     13607 MEMB     102      POPS     C212     CTL2    -0.180000       12.0110           0
     13608 MEMB     102      POPS     H12R     HAL2     0.900000E-01   1.00800           0
     13609 MEMB     102      POPS     H12S     HAL2     0.900000E-01   1.00800           0
     13610 MEMB     102      POPS     C213     CTL2    -0.180000       12.0110           0
     13611 MEMB     102      POPS     H13R     HAL2     0.900000E-01   1.00800           0
     13612 MEMB     102      POPS     H13S     HAL2     0.900000E-01   1.00800           0
     13613 MEMB     102      POPS     C214     CTL2    -0.180000       12.0110           0
     13614 MEMB     102      POPS     H14R     HAL2     0.900000E-01   1.00800           0
     13615 MEMB     102      POPS     H14S     HAL2     0.900000E-01   1.00800           0
     13616 MEMB     102      POPS     C215     CTL2    -0.180000       12.0110           0
     13617 MEMB     102      POPS     H15R     HAL2     0.900000E-01   1.00800           0
     13618 MEMB     102      POPS     H15S     HAL2     0.900000E-01   1.00800           0
     13619 MEMB     102      POPS     C216     CTL2    -0.180000       12.0110           0
     13620 MEMB     102      POPS     H16R     HAL2     0.900000E-01   1.00800           0
     13621 MEMB     102      POPS     H16S     HAL2     0.900000E-01   1.00800           0
     13622 MEMB     102      POPS     C217     CTL2    -0.180000       12.0110           0
     13623 MEMB     102      POPS     H17R     HAL2     0.900000E-01   1.00800           0
     13624 MEMB     102      POPS     H17S     HAL2     0.900000E-01   1.00800           0
     13625 MEMB     102      POPS     C218     CTL3    -0.270000       12.0110           0
     13626 MEMB     102      POPS     H18R     HAL3     0.900000E-01   1.00800           0
     13627 MEMB     102      POPS     H18S     HAL3     0.900000E-01   1.00800           0
     13628 MEMB     102      POPS     H18T     HAL3     0.900000E-01   1.00800           0
     13629 MEMB     102      POPS     C33      CTL2    -0.180000       12.0110           0
     13630 MEMB     102      POPS     H3X      HAL2     0.900000E-01   1.00800           0
     13631 MEMB     102      POPS     H3Y      HAL2     0.900000E-01   1.00800           0
     13632 MEMB     102      POPS     C34      CTL2    -0.180000       12.0110           0
     13633 MEMB     102      POPS     H4X      HAL2     0.900000E-01   1.00800           0
     13634 MEMB     102      POPS     H4Y      HAL2     0.900000E-01   1.00800           0
     13635 MEMB     102      POPS     C35      CTL2    -0.180000       12.0110           0
     13636 MEMB     102      POPS     H5X      HAL2     0.900000E-01   1.00800           0
     13637 MEMB     102      POPS     H5Y      HAL2     0.900000E-01   1.00800           0
     13638 MEMB     102      POPS     C36      CTL2    -0.180000       12.0110           0
     13639 MEMB     102      POPS     H6X      HAL2     0.900000E-01   1.00800           0
     13640 MEMB     102      POPS     H6Y      HAL2     0.900000E-01   1.00800           0
     13641 MEMB     102      POPS     C37      CTL2    -0.180000       12.0110           0
     13642 MEMB     102      POPS     H7X      HAL2     0.900000E-01   1.00800           0
     13643 MEMB     102      POPS     H7Y      HAL2     0.900000E-01   1.00800           0
     13644 MEMB     102      POPS     C38      CTL2    -0.180000       12.0110           0
     13645 MEMB     102      POPS     H8X      HAL2     0.900000E-01   1.00800           0
     13646 MEMB     102      POPS     H8Y      HAL2     0.900000E-01   1.00800           0
     13647 MEMB     102      POPS     C39      CTL2    -0.180000       12.0110           0
     13648 MEMB     102      POPS     H9X      HAL2     0.900000E-01   1.00800           0
     13649 MEMB     102      POPS     H9Y      HAL2     0.900000E-01   1.00800           0
     13650 MEMB     102      POPS     C310     CTL2    -0.180000       12.0110           0
     13651 MEMB     102      POPS     H10X     HAL2     0.900000E-01   1.00800           0
     13652 MEMB     102      POPS     H10Y     HAL2     0.900000E-01   1.00800           0
     13653 MEMB     102      POPS     C311     CTL2    -0.180000       12.0110           0
     13654 MEMB     102      POPS     H11X     HAL2     0.900000E-01   1.00800           0
     13655 MEMB     102      POPS     H11Y     HAL2     0.900000E-01   1.00800           0
     13656 MEMB     102      POPS     C312     CTL2    -0.180000       12.0110           0
     13657 MEMB     102      POPS     H12X     HAL2     0.900000E-01   1.00800           0
     13658 MEMB     102      POPS     H12Y     HAL2     0.900000E-01   1.00800           0
     13659 MEMB     102      POPS     C313     CTL2    -0.180000       12.0110           0
     13660 MEMB     102      POPS     H13X     HAL2     0.900000E-01   1.00800           0
     13661 MEMB     102      POPS     H13Y     HAL2     0.900000E-01   1.00800           0
     13662 MEMB     102      POPS     C314     CTL2    -0.180000       12.0110           0
     13663 MEMB     102      POPS     H14X     HAL2     0.900000E-01   1.00800           0
     13664 MEMB     102      POPS     H14Y     HAL2     0.900000E-01   1.00800           0
     13665 MEMB     102      POPS     C315     CTL2    -0.180000       12.0110           0
     13666 MEMB     102      POPS     H15X     HAL2     0.900000E-01   1.00800           0
     13667 MEMB     102      POPS     H15Y     HAL2     0.900000E-01   1.00800           0
     13668 MEMB     102      POPS     C316     CTL3    -0.270000       12.0110           0
     13669 MEMB     102      POPS     H16X     HAL3     0.900000E-01   1.00800           0
     13670 MEMB     102      POPS     H16Y     HAL3     0.900000E-01   1.00800           0
     13671 MEMB     102      POPS     H16Z     HAL3     0.900000E-01   1.00800           0
     13672 MEMB     103      POPC     N        NTL     -0.600000       14.0070           0
     13673 MEMB     103      POPC     C12      CTL2    -0.100000       12.0110           0
     13674 MEMB     103      POPC     H12A     HL       0.250000       1.00800           0
     13675 MEMB     103      POPC     H12B     HL       0.250000       1.00800           0
     13676 MEMB     103      POPC     C13      CTL5    -0.350000       12.0110           0
     13677 MEMB     103      POPC     H13A     HL       0.250000       1.00800           0
     13678 MEMB     103      POPC     H13B     HL       0.250000       1.00800           0
     13679 MEMB     103      POPC     H13C     HL       0.250000       1.00800           0
     13680 MEMB     103      POPC     C14      CTL5    -0.350000       12.0110           0
     13681 MEMB     103      POPC     H14A     HL       0.250000       1.00800           0
     13682 MEMB     103      POPC     H14B     HL       0.250000       1.00800           0
     13683 MEMB     103      POPC     H14C     HL       0.250000       1.00800           0
     13684 MEMB     103      POPC     C15      CTL5    -0.350000       12.0110           0
     13685 MEMB     103      POPC     H15A     HL       0.250000       1.00800           0
     13686 MEMB     103      POPC     H15B     HL       0.250000       1.00800           0
     13687 MEMB     103      POPC     H15C     HL       0.250000       1.00800           0
     13688 MEMB     103      POPC     C11      CTL2    -0.800000E-01   12.0110           0
     13689 MEMB     103      POPC     H11A     HAL2     0.900000E-01   1.00800           0
     13690 MEMB     103      POPC     H11B     HAL2     0.900000E-01   1.00800           0
     13691 MEMB     103      POPC     P        PL       1.500000       30.9740           0
     13692 MEMB     103      POPC     O13      O2L     -0.780000       15.9994           0
     13693 MEMB     103      POPC     O14      O2L     -0.780000       15.9994           0
     13694 MEMB     103      POPC     O12      OSLP    -0.570000       15.9994           0
     13695 MEMB     103      POPC     O11      OSLP    -0.570000       15.9994           0
     13696 MEMB     103      POPC     C1       CTL2    -0.800000E-01   12.0110           0
     13697 MEMB     103      POPC     HA       HAL2     0.900000E-01   1.00800           0
     13698 MEMB     103      POPC     HB       HAL2     0.900000E-01   1.00800           0
     13699 MEMB     103      POPC     C2       CTL1     0.170000       12.0110           0
     13700 MEMB     103      POPC     HS       HAL1     0.900000E-01   1.00800           0
     13701 MEMB     103      POPC     O21      OSL     -0.490000       15.9994           0
     13702 MEMB     103      POPC     C21      CL       0.900000       12.0110           0
     13703 MEMB     103      POPC     O22      OBL     -0.630000       15.9994           0
     13704 MEMB     103      POPC     C22      CTL2    -0.220000       12.0110           0
     13705 MEMB     103      POPC     H2R      HAL2     0.900000E-01   1.00800           0
     13706 MEMB     103      POPC     H2S      HAL2     0.900000E-01   1.00800           0
     13707 MEMB     103      POPC     C3       CTL2     0.800000E-01   12.0110           0
     13708 MEMB     103      POPC     HX       HAL2     0.900000E-01   1.00800           0
     13709 MEMB     103      POPC     HY       HAL2     0.900000E-01   1.00800           0
     13710 MEMB     103      POPC     O31      OSL     -0.490000       15.9994           0
     13711 MEMB     103      POPC     C31      CL       0.900000       12.0110           0
     13712 MEMB     103      POPC     O32      OBL     -0.630000       15.9994           0
     13713 MEMB     103      POPC     C32      CTL2    -0.220000       12.0110           0
     13714 MEMB     103      POPC     H2X      HAL2     0.900000E-01   1.00800           0
     13715 MEMB     103      POPC     H2Y      HAL2     0.900000E-01   1.00800           0
     13716 MEMB     103      POPC     C23      CTL2    -0.180000       12.0110           0
     13717 MEMB     103      POPC     H3R      HAL2     0.900000E-01   1.00800           0
     13718 MEMB     103      POPC     H3S      HAL2     0.900000E-01   1.00800           0
     13719 MEMB     103      POPC     C24      CTL2    -0.180000       12.0110           0
     13720 MEMB     103      POPC     H4R      HAL2     0.900000E-01   1.00800           0
     13721 MEMB     103      POPC     H4S      HAL2     0.900000E-01   1.00800           0
     13722 MEMB     103      POPC     C25      CTL2    -0.180000       12.0110           0
     13723 MEMB     103      POPC     H5R      HAL2     0.900000E-01   1.00800           0
     13724 MEMB     103      POPC     H5S      HAL2     0.900000E-01   1.00800           0
     13725 MEMB     103      POPC     C26      CTL2    -0.180000       12.0110           0
     13726 MEMB     103      POPC     H6R      HAL2     0.900000E-01   1.00800           0
     13727 MEMB     103      POPC     H6S      HAL2     0.900000E-01   1.00800           0
     13728 MEMB     103      POPC     C27      CTL2    -0.180000       12.0110           0
     13729 MEMB     103      POPC     H7R      HAL2     0.900000E-01   1.00800           0
     13730 MEMB     103      POPC     H7S      HAL2     0.900000E-01   1.00800           0
     13731 MEMB     103      POPC     C28      CTL2    -0.180000       12.0110           0
     13732 MEMB     103      POPC     H8R      HAL2     0.900000E-01   1.00800           0
     13733 MEMB     103      POPC     H8S      HAL2     0.900000E-01   1.00800           0
     13734 MEMB     103      POPC     C29      CEL1    -0.150000       12.0110           0
     13735 MEMB     103      POPC     H91      HEL1     0.150000       1.00800           0
     13736 MEMB     103      POPC     C210     CEL1    -0.150000       12.0110           0
     13737 MEMB     103      POPC     H101     HEL1     0.150000       1.00800           0
     13738 MEMB     103      POPC     C211     CTL2    -0.180000       12.0110           0
     13739 MEMB     103      POPC     H11R     HAL2     0.900000E-01   1.00800           0
     13740 MEMB     103      POPC     H11S     HAL2     0.900000E-01   1.00800           0
     13741 MEMB     103      POPC     C212     CTL2    -0.180000       12.0110           0
     13742 MEMB     103      POPC     H12R     HAL2     0.900000E-01   1.00800           0
     13743 MEMB     103      POPC     H12S     HAL2     0.900000E-01   1.00800           0
     13744 MEMB     103      POPC     C213     CTL2    -0.180000       12.0110           0
     13745 MEMB     103      POPC     H13R     HAL2     0.900000E-01   1.00800           0
     13746 MEMB     103      POPC     H13S     HAL2     0.900000E-01   1.00800           0
     13747 MEMB     103      POPC     C214     CTL2    -0.180000       12.0110           0
     13748 MEMB     103      POPC     H14R     HAL2     0.900000E-01   1.00800           0
     13749 MEMB     103      POPC     H14S     HAL2     0.900000E-01   1.00800           0
     13750 MEMB     103      POPC     C215     CTL2    -0.180000       12.0110           0
     13751 MEMB     103      POPC     H15R     HAL2     0.900000E-01   1.00800           0
     13752 MEMB     103      POPC     H15S     HAL2     0.900000E-01   1.00800           0
     13753 MEMB     103      POPC     C216     CTL2    -0.180000       12.0110           0
     13754 MEMB     103      POPC     H16R     HAL2     0.900000E-01   1.00800           0
     13755 MEMB     103      POPC     H16S     HAL2     0.900000E-01   1.00800           0
     13756 MEMB     103      POPC     C217     CTL2    -0.180000       12.0110           0
     13757 MEMB     103      POPC     H17R     HAL2     0.900000E-01   1.00800           0
     13758 MEMB     103      POPC     H17S     HAL2     0.900000E-01   1.00800           0
     13759 MEMB     103      POPC     C218     CTL3    -0.270000       12.0110           0
     13760 MEMB     103      POPC     H18R     HAL3     0.900000E-01   1.00800           0
     13761 MEMB     103      POPC     H18S     HAL3     0.900000E-01   1.00800           0
     13762 MEMB     103      POPC     H18T     HAL3     0.900000E-01   1.00800           0
     13763 MEMB     103      POPC     C33      CTL2    -0.180000       12.0110           0
     13764 MEMB     103      POPC     H3X      HAL2     0.900000E-01   1.00800           0
     13765 MEMB     103      POPC     H3Y      HAL2     0.900000E-01   1.00800           0
     13766 MEMB     103      POPC     C34      CTL2    -0.180000       12.0110           0
     13767 MEMB     103      POPC     H4X      HAL2     0.900000E-01   1.00800           0
     13768 MEMB     103      POPC     H4Y      HAL2     0.900000E-01   1.00800           0
     13769 MEMB     103      POPC     C35      CTL2    -0.180000       12.0110           0
     13770 MEMB     103      POPC     H5X      HAL2     0.900000E-01   1.00800           0
     13771 MEMB     103      POPC     H5Y      HAL2     0.900000E-01   1.00800           0
     13772 MEMB     103      POPC     C36      CTL2    -0.180000       12.0110           0
     13773 MEMB     103      POPC     H6X      HAL2     0.900000E-01   1.00800           0
     13774 MEMB     103      POPC     H6Y      HAL2     0.900000E-01   1.00800           0
     13775 MEMB     103      POPC     C37      CTL2    -0.180000       12.0110           0
     13776 MEMB     103      POPC     H7X      HAL2     0.900000E-01   1.00800           0
     13777 MEMB     103      POPC     H7Y      HAL2     0.900000E-01   1.00800           0
     13778 MEMB     103      POPC     C38      CTL2    -0.180000       12.0110           0
     13779 MEMB     103      POPC     H8X      HAL2     0.900000E-01   1.00800           0
     13780 MEMB     103      POPC     H8Y      HAL2     0.900000E-01   1.00800           0
     13781 MEMB     103      POPC     C39      CTL2    -0.180000       12.0110           0
     13782 MEMB     103      POPC     H9X      HAL2     0.900000E-01   1.00800           0
     13783 MEMB     103      POPC     H9Y      HAL2     0.900000E-01   1.00800           0
     13784 MEMB     103      POPC     C310     CTL2    -0.180000       12.0110           0
     13785 MEMB     103      POPC     H10X     HAL2     0.900000E-01   1.00800           0
     13786 MEMB     103      POPC     H10Y     HAL2     0.900000E-01   1.00800           0
     13787 MEMB     103      POPC     C311     CTL2    -0.180000       12.0110           0
     13788 MEMB     103      POPC     H11X     HAL2     0.900000E-01   1.00800           0
     13789 MEMB     103      POPC     H11Y     HAL2     0.900000E-01   1.00800           0
     13790 MEMB     103      POPC     C312     CTL2    -0.180000       12.0110           0
     13791 MEMB     103      POPC     H12X     HAL2     0.900000E-01   1.00800           0
     13792 MEMB     103      POPC     H12Y     HAL2     0.900000E-01   1.00800           0
     13793 MEMB     103      POPC     C313     CTL2    -0.180000       12.0110           0
     13794 MEMB     103      POPC     H13X     HAL2     0.900000E-01   1.00800           0
     13795 MEMB     103      POPC     H13Y     HAL2     0.900000E-01   1.00800           0
     13796 MEMB     103      POPC     C314     CTL2    -0.180000       12.0110           0
     13797 MEMB     103      POPC     H14X     HAL2     0.900000E-01   1.00800           0
     13798 MEMB     103      POPC     H14Y     HAL2     0.900000E-01   1.00800           0
     13799 MEMB     103      POPC     C315     CTL2    -0.180000       12.0110           0
     13800 MEMB     103      POPC     H15X     HAL2     0.900000E-01   1.00800           0
     13801 MEMB     103      POPC     H15Y     HAL2     0.900000E-01   1.00800           0
     13802 MEMB     103      POPC     C316     CTL3    -0.270000       12.0110           0
     13803 MEMB     103      POPC     H16X     HAL3     0.900000E-01   1.00800           0
     13804 MEMB     103      POPC     H16Y     HAL3     0.900000E-01   1.00800           0
     13805 MEMB     103      POPC     H16Z     HAL3     0.900000E-01   1.00800           0
     13806 MEMB     104      POPS     N        NH3L    -0.300000       14.0070           0
     13807 MEMB     104      POPS     HN1      HCL      0.330000       1.00800           0
     13808 MEMB     104      POPS     HN2      HCL      0.330000       1.00800           0
     13809 MEMB     104      POPS     HN3      HCL      0.330000       1.00800           0
     13810 MEMB     104      POPS     C12      CTL1     0.210000       12.0110           0
     13811 MEMB     104      POPS     H12A     HBL      0.100000       1.00800           0
     13812 MEMB     104      POPS     C13      CCL      0.340000       12.0110           0
     13813 MEMB     104      POPS     O13A     OCL     -0.670000       15.9994           0
     13814 MEMB     104      POPS     O13B     OCL     -0.670000       15.9994           0
     13815 MEMB     104      POPS     C11      CTL2    -0.800000E-01   12.0110           0
     13816 MEMB     104      POPS     H11A     HAL2     0.900000E-01   1.00800           0
     13817 MEMB     104      POPS     H11B     HAL2     0.900000E-01   1.00800           0
     13818 MEMB     104      POPS     P        PL       1.500000       30.9740           0
     13819 MEMB     104      POPS     O13      O2L     -0.780000       15.9994           0
     13820 MEMB     104      POPS     O14      O2L     -0.780000       15.9994           0
     13821 MEMB     104      POPS     O12      OSLP    -0.570000       15.9994           0
     13822 MEMB     104      POPS     O11      OSLP    -0.570000       15.9994           0
     13823 MEMB     104      POPS     C1       CTL2    -0.800000E-01   12.0110           0
     13824 MEMB     104      POPS     HA       HAL2     0.900000E-01   1.00800           0
     13825 MEMB     104      POPS     HB       HAL2     0.900000E-01   1.00800           0
     13826 MEMB     104      POPS     C2       CTL1     0.170000       12.0110           0
     13827 MEMB     104      POPS     HS       HAL1     0.900000E-01   1.00800           0
     13828 MEMB     104      POPS     O21      OSL     -0.490000       15.9994           0
     13829 MEMB     104      POPS     C21      CL       0.900000       12.0110           0
     13830 MEMB     104      POPS     O22      OBL     -0.630000       15.9994           0
     13831 MEMB     104      POPS     C22      CTL2    -0.220000       12.0110           0
     13832 MEMB     104      POPS     H2R      HAL2     0.900000E-01   1.00800           0
     13833 MEMB     104      POPS     H2S      HAL2     0.900000E-01   1.00800           0
     13834 MEMB     104      POPS     C3       CTL2     0.800000E-01   12.0110           0
     13835 MEMB     104      POPS     HX       HAL2     0.900000E-01   1.00800           0
     13836 MEMB     104      POPS     HY       HAL2     0.900000E-01   1.00800           0
     13837 MEMB     104      POPS     O31      OSL     -0.490000       15.9994           0
     13838 MEMB     104      POPS     C31      CL       0.900000       12.0110           0
     13839 MEMB     104      POPS     O32      OBL     -0.630000       15.9994           0
     13840 MEMB     104      POPS     C32      CTL2    -0.220000       12.0110           0
     13841 MEMB     104      POPS     H2X      HAL2     0.900000E-01   1.00800           0
     13842 MEMB     104      POPS     H2Y      HAL2     0.900000E-01   1.00800           0
     13843 MEMB     104      POPS     C23      CTL2    -0.180000       12.0110           0
     13844 MEMB     104      POPS     H3R      HAL2     0.900000E-01   1.00800           0
     13845 MEMB     104      POPS     H3S      HAL2     0.900000E-01   1.00800           0
     13846 MEMB     104      POPS     C24      CTL2    -0.180000       12.0110           0
     13847 MEMB     104      POPS     H4R      HAL2     0.900000E-01   1.00800           0
     13848 MEMB     104      POPS     H4S      HAL2     0.900000E-01   1.00800           0
     13849 MEMB     104      POPS     C25      CTL2    -0.180000       12.0110           0
     13850 MEMB     104      POPS     H5R      HAL2     0.900000E-01   1.00800           0
     13851 MEMB     104      POPS     H5S      HAL2     0.900000E-01   1.00800           0
     13852 MEMB     104      POPS     C26      CTL2    -0.180000       12.0110           0
     13853 MEMB     104      POPS     H6R      HAL2     0.900000E-01   1.00800           0
     13854 MEMB     104      POPS     H6S      HAL2     0.900000E-01   1.00800           0
     13855 MEMB     104      POPS     C27      CTL2    -0.180000       12.0110           0
     13856 MEMB     104      POPS     H7R      HAL2     0.900000E-01   1.00800           0
     13857 MEMB     104      POPS     H7S      HAL2     0.900000E-01   1.00800           0
     13858 MEMB     104      POPS     C28      CTL2    -0.180000       12.0110           0
     13859 MEMB     104      POPS     H8R      HAL2     0.900000E-01   1.00800           0
     13860 MEMB     104      POPS     H8S      HAL2     0.900000E-01   1.00800           0
     13861 MEMB     104      POPS     C29      CEL1    -0.150000       12.0110           0
     13862 MEMB     104      POPS     H91      HEL1     0.150000       1.00800           0
     13863 MEMB     104      POPS     C210     CEL1    -0.150000       12.0110           0
     13864 MEMB     104      POPS     H101     HEL1     0.150000       1.00800           0
     13865 MEMB     104      POPS     C211     CTL2    -0.180000       12.0110           0
     13866 MEMB     104      POPS     H11R     HAL2     0.900000E-01   1.00800           0
     13867 MEMB     104      POPS     H11S     HAL2     0.900000E-01   1.00800           0
     13868 MEMB     104      POPS     C212     CTL2    -0.180000       12.0110           0
     13869 MEMB     104      POPS     H12R     HAL2     0.900000E-01   1.00800           0
     13870 MEMB     104      POPS     H12S     HAL2     0.900000E-01   1.00800           0
     13871 MEMB     104      POPS     C213     CTL2    -0.180000       12.0110           0
     13872 MEMB     104      POPS     H13R     HAL2     0.900000E-01   1.00800           0
     13873 MEMB     104      POPS     H13S     HAL2     0.900000E-01   1.00800           0
     13874 MEMB     104      POPS     C214     CTL2    -0.180000       12.0110           0
     13875 MEMB     104      POPS     H14R     HAL2     0.900000E-01   1.00800           0
     13876 MEMB     104      POPS     H14S     HAL2     0.900000E-01   1.00800           0
     13877 MEMB     104      POPS     C215     CTL2    -0.180000       12.0110           0
     13878 MEMB     104      POPS     H15R     HAL2     0.900000E-01   1.00800           0
     13879 MEMB     104      POPS     H15S     HAL2     0.900000E-01   1.00800           0
     13880 MEMB     104      POPS     C216     CTL2    -0.180000       12.0110           0
     13881 MEMB     104      POPS     H16R     HAL2     0.900000E-01   1.00800           0
     13882 MEMB     104      POPS     H16S     HAL2     0.900000E-01   1.00800           0
     13883 MEMB     104      POPS     C217     CTL2    -0.180000       12.0110           0
     13884 MEMB     104      POPS     H17R     HAL2     0.900000E-01   1.00800           0
     13885 MEMB     104      POPS     H17S     HAL2     0.900000E-01   1.00800           0
     13886 MEMB     104      POPS     C218     CTL3    -0.270000       12.0110           0
     13887 MEMB     104      POPS     H18R     HAL3     0.900000E-01   1.00800           0
     13888 MEMB     104      POPS     H18S     HAL3     0.900000E-01   1.00800           0
     13889 MEMB     104      POPS     H18T     HAL3     0.900000E-01   1.00800           0
     13890 MEMB     104      POPS     C33      CTL2    -0.180000       12.0110           0
     13891 MEMB     104      POPS     H3X      HAL2     0.900000E-01   1.00800           0
     13892 MEMB     104      POPS     H3Y      HAL2     0.900000E-01   1.00800           0
     13893 MEMB     104      POPS     C34      CTL2    -0.180000       12.0110           0
     13894 MEMB     104      POPS     H4X      HAL2     0.900000E-01   1.00800           0
     13895 MEMB     104      POPS     H4Y      HAL2     0.900000E-01   1.00800           0
     13896 MEMB     104      POPS     C35      CTL2    -0.180000       12.0110           0
     13897 MEMB     104      POPS     H5X      HAL2     0.900000E-01   1.00800           0
     13898 MEMB     104      POPS     H5Y      HAL2     0.900000E-01   1.00800           0
     13899 MEMB     104      POPS     C36      CTL2    -0.180000       12.0110           0
     13900 MEMB     104      POPS     H6X      HAL2     0.900000E-01   1.00800           0
     13901 MEMB     104      POPS     H6Y      HAL2     0.900000E-01   1.00800           0
     13902 MEMB     104      POPS     C37      CTL2    -0.180000       12.0110           0
     13903 MEMB     104      POPS     H7X      HAL2     0.900000E-01   1.00800           0
     13904 MEMB     104      POPS     H7Y      HAL2     0.900000E-01   1.00800           0
     13905 MEMB     104      POPS     C38      CTL2    -0.180000       12.0110           0
     13906 MEMB     104      POPS     H8X      HAL2     0.900000E-01   1.00800           0
     13907 MEMB     104      POPS     H8Y      HAL2     0.900000E-01   1.00800           0
     13908 MEMB     104      POPS     C39      CTL2    -0.180000       12.0110           0
     13909 MEMB     104      POPS     H9X      HAL2     0.900000E-01   1.00800           0
     13910 MEMB     104      POPS     H9Y      HAL2     0.900000E-01   1.00800           0
     13911 MEMB     104      POPS     C310     CTL2    -0.180000       12.0110           0
     13912 MEMB     104      POPS     H10X     HAL2     0.900000E-01   1.00800           0
     13913 MEMB     104      POPS     H10Y     HAL2     0.900000E-01   1.00800           0
     13914 MEMB     104      POPS     C311     CTL2    -0.180000       12.0110           0
     13915 MEMB     104      POPS     H11X     HAL2     0.900000E-01   1.00800           0
     13916 MEMB     104      POPS     H11Y     HAL2     0.900000E-01   1.00800           0
     13917 MEMB     104      POPS     C312     CTL2    -0.180000       12.0110           0
     13918 MEMB     104      POPS     H12X     HAL2     0.900000E-01   1.00800           0
     13919 MEMB     104      POPS     H12Y     HAL2     0.900000E-01   1.00800           0
     13920 MEMB     104      POPS     C313     CTL2    -0.180000       12.0110           0
     13921 MEMB     104      POPS     H13X     HAL2     0.900000E-01   1.00800           0
     13922 MEMB     104      POPS     H13Y     HAL2     0.900000E-01   1.00800           0
     13923 MEMB     104      POPS     C314     CTL2    -0.180000       12.0110           0
     13924 MEMB     104      POPS     H14X     HAL2     0.900000E-01   1.00800           0
     13925 MEMB     104      POPS     H14Y     HAL2     0.900000E-01   1.00800           0
     13926 MEMB     104      POPS     C315     CTL2    -0.180000       12.0110           0
     13927 MEMB     104      POPS     H15X     HAL2     0.900000E-01   1.00800           0
     13928 MEMB     104      POPS     H15Y     HAL2     0.900000E-01   1.00800           0
     13929 MEMB     104      POPS     C316     CTL3    -0.270000       12.0110           0
     13930 MEMB     104      POPS     H16X     HAL3     0.900000E-01   1.00800           0
     13931 MEMB     104      POPS     H16Y     HAL3     0.900000E-01   1.00800           0
     13932 MEMB     104      POPS     H16Z     HAL3     0.900000E-01   1.00800           0
     13933 MEMB     105      POPC     N        NTL     -0.600000       14.0070           0
     13934 MEMB     105      POPC     C12      CTL2    -0.100000       12.0110           0
     13935 MEMB     105      POPC     H12A     HL       0.250000       1.00800           0
     13936 MEMB     105      POPC     H12B     HL       0.250000       1.00800           0
     13937 MEMB     105      POPC     C13      CTL5    -0.350000       12.0110           0
     13938 MEMB     105      POPC     H13A     HL       0.250000       1.00800           0
     13939 MEMB     105      POPC     H13B     HL       0.250000       1.00800           0
     13940 MEMB     105      POPC     H13C     HL       0.250000       1.00800           0
     13941 MEMB     105      POPC     C14      CTL5    -0.350000       12.0110           0
     13942 MEMB     105      POPC     H14A     HL       0.250000       1.00800           0
     13943 MEMB     105      POPC     H14B     HL       0.250000       1.00800           0
     13944 MEMB     105      POPC     H14C     HL       0.250000       1.00800           0
     13945 MEMB     105      POPC     C15      CTL5    -0.350000       12.0110           0
     13946 MEMB     105      POPC     H15A     HL       0.250000       1.00800           0
     13947 MEMB     105      POPC     H15B     HL       0.250000       1.00800           0
     13948 MEMB     105      POPC     H15C     HL       0.250000       1.00800           0
     13949 MEMB     105      POPC     C11      CTL2    -0.800000E-01   12.0110           0
     13950 MEMB     105      POPC     H11A     HAL2     0.900000E-01   1.00800           0
     13951 MEMB     105      POPC     H11B     HAL2     0.900000E-01   1.00800           0
     13952 MEMB     105      POPC     P        PL       1.500000       30.9740           0
     13953 MEMB     105      POPC     O13      O2L     -0.780000       15.9994           0
     13954 MEMB     105      POPC     O14      O2L     -0.780000       15.9994           0
     13955 MEMB     105      POPC     O12      OSLP    -0.570000       15.9994           0
     13956 MEMB     105      POPC     O11      OSLP    -0.570000       15.9994           0
     13957 MEMB     105      POPC     C1       CTL2    -0.800000E-01   12.0110           0
     13958 MEMB     105      POPC     HA       HAL2     0.900000E-01   1.00800           0
     13959 MEMB     105      POPC     HB       HAL2     0.900000E-01   1.00800           0
     13960 MEMB     105      POPC     C2       CTL1     0.170000       12.0110           0
     13961 MEMB     105      POPC     HS       HAL1     0.900000E-01   1.00800           0
     13962 MEMB     105      POPC     O21      OSL     -0.490000       15.9994           0
     13963 MEMB     105      POPC     C21      CL       0.900000       12.0110           0
     13964 MEMB     105      POPC     O22      OBL     -0.630000       15.9994           0
     13965 MEMB     105      POPC     C22      CTL2    -0.220000       12.0110           0
     13966 MEMB     105      POPC     H2R      HAL2     0.900000E-01   1.00800           0
     13967 MEMB     105      POPC     H2S      HAL2     0.900000E-01   1.00800           0
     13968 MEMB     105      POPC     C3       CTL2     0.800000E-01   12.0110           0
     13969 MEMB     105      POPC     HX       HAL2     0.900000E-01   1.00800           0
     13970 MEMB     105      POPC     HY       HAL2     0.900000E-01   1.00800           0
     13971 MEMB     105      POPC     O31      OSL     -0.490000       15.9994           0
     13972 MEMB     105      POPC     C31      CL       0.900000       12.0110           0
     13973 MEMB     105      POPC     O32      OBL     -0.630000       15.9994           0
     13974 MEMB     105      POPC     C32      CTL2    -0.220000       12.0110           0
     13975 MEMB     105      POPC     H2X      HAL2     0.900000E-01   1.00800           0
     13976 MEMB     105      POPC     H2Y      HAL2     0.900000E-01   1.00800           0
     13977 MEMB     105      POPC     C23      CTL2    -0.180000       12.0110           0
     13978 MEMB     105      POPC     H3R      HAL2     0.900000E-01   1.00800           0
     13979 MEMB     105      POPC     H3S      HAL2     0.900000E-01   1.00800           0
     13980 MEMB     105      POPC     C24      CTL2    -0.180000       12.0110           0
     13981 MEMB     105      POPC     H4R      HAL2     0.900000E-01   1.00800           0
     13982 MEMB     105      POPC     H4S      HAL2     0.900000E-01   1.00800           0
     13983 MEMB     105      POPC     C25      CTL2    -0.180000       12.0110           0
     13984 MEMB     105      POPC     H5R      HAL2     0.900000E-01   1.00800           0
     13985 MEMB     105      POPC     H5S      HAL2     0.900000E-01   1.00800           0
     13986 MEMB     105      POPC     C26      CTL2    -0.180000       12.0110           0
     13987 MEMB     105      POPC     H6R      HAL2     0.900000E-01   1.00800           0
     13988 MEMB     105      POPC     H6S      HAL2     0.900000E-01   1.00800           0
     13989 MEMB     105      POPC     C27      CTL2    -0.180000       12.0110           0
     13990 MEMB     105      POPC     H7R      HAL2     0.900000E-01   1.00800           0
     13991 MEMB     105      POPC     H7S      HAL2     0.900000E-01   1.00800           0
     13992 MEMB     105      POPC     C28      CTL2    -0.180000       12.0110           0
     13993 MEMB     105      POPC     H8R      HAL2     0.900000E-01   1.00800           0
     13994 MEMB     105      POPC     H8S      HAL2     0.900000E-01   1.00800           0
     13995 MEMB     105      POPC     C29      CEL1    -0.150000       12.0110           0
     13996 MEMB     105      POPC     H91      HEL1     0.150000       1.00800           0
     13997 MEMB     105      POPC     C210     CEL1    -0.150000       12.0110           0
     13998 MEMB     105      POPC     H101     HEL1     0.150000       1.00800           0
     13999 MEMB     105      POPC     C211     CTL2    -0.180000       12.0110           0
     14000 MEMB     105      POPC     H11R     HAL2     0.900000E-01   1.00800           0
     14001 MEMB     105      POPC     H11S     HAL2     0.900000E-01   1.00800           0
     14002 MEMB     105      POPC     C212     CTL2    -0.180000       12.0110           0
     14003 MEMB     105      POPC     H12R     HAL2     0.900000E-01   1.00800           0
     14004 MEMB     105      POPC     H12S     HAL2     0.900000E-01   1.00800           0
     14005 MEMB     105      POPC     C213     CTL2    -0.180000       12.0110           0
     14006 MEMB     105      POPC     H13R     HAL2     0.900000E-01   1.00800           0
     14007 MEMB     105      POPC     H13S     HAL2     0.900000E-01   1.00800           0
     14008 MEMB     105      POPC     C214     CTL2    -0.180000       12.0110           0
     14009 MEMB     105      POPC     H14R     HAL2     0.900000E-01   1.00800           0
     14010 MEMB     105      POPC     H14S     HAL2     0.900000E-01   1.00800           0
     14011 MEMB     105      POPC     C215     CTL2    -0.180000       12.0110           0
     14012 MEMB     105      POPC     H15R     HAL2     0.900000E-01   1.00800           0
     14013 MEMB     105      POPC     H15S     HAL2     0.900000E-01   1.00800           0
     14014 MEMB     105      POPC     C216     CTL2    -0.180000       12.0110           0
     14015 MEMB     105      POPC     H16R     HAL2     0.900000E-01   1.00800           0
     14016 MEMB     105      POPC     H16S     HAL2     0.900000E-01   1.00800           0
     14017 MEMB     105      POPC     C217     CTL2    -0.180000       12.0110           0
     14018 MEMB     105      POPC     H17R     HAL2     0.900000E-01   1.00800           0
     14019 MEMB     105      POPC     H17S     HAL2     0.900000E-01   1.00800           0
     14020 MEMB     105      POPC     C218     CTL3    -0.270000       12.0110           0
     14021 MEMB     105      POPC     H18R     HAL3     0.900000E-01   1.00800           0
     14022 MEMB     105      POPC     H18S     HAL3     0.900000E-01   1.00800           0
     14023 MEMB     105      POPC     H18T     HAL3     0.900000E-01   1.00800           0
     14024 MEMB     105      POPC     C33      CTL2    -0.180000       12.0110           0
     14025 MEMB     105      POPC     H3X      HAL2     0.900000E-01   1.00800           0
     14026 MEMB     105      POPC     H3Y      HAL2     0.900000E-01   1.00800           0
     14027 MEMB     105      POPC     C34      CTL2    -0.180000       12.0110           0
     14028 MEMB     105      POPC     H4X      HAL2     0.900000E-01   1.00800           0
     14029 MEMB     105      POPC     H4Y      HAL2     0.900000E-01   1.00800           0
     14030 MEMB     105      POPC     C35      CTL2    -0.180000       12.0110           0
     14031 MEMB     105      POPC     H5X      HAL2     0.900000E-01   1.00800           0
     14032 MEMB     105      POPC     H5Y      HAL2     0.900000E-01   1.00800           0
     14033 MEMB     105      POPC     C36      CTL2    -0.180000       12.0110           0
     14034 MEMB     105      POPC     H6X      HAL2     0.900000E-01   1.00800           0
     14035 MEMB     105      POPC     H6Y      HAL2     0.900000E-01   1.00800           0
     14036 MEMB     105      POPC     C37      CTL2    -0.180000       12.0110           0
     14037 MEMB     105      POPC     H7X      HAL2     0.900000E-01   1.00800           0
     14038 MEMB     105      POPC     H7Y      HAL2     0.900000E-01   1.00800           0
     14039 MEMB     105      POPC     C38      CTL2    -0.180000       12.0110           0
     14040 MEMB     105      POPC     H8X      HAL2     0.900000E-01   1.00800           0
     14041 MEMB     105      POPC     H8Y      HAL2     0.900000E-01   1.00800           0
     14042 MEMB     105      POPC     C39      CTL2    -0.180000       12.0110           0
     14043 MEMB     105      POPC     H9X      HAL2     0.900000E-01   1.00800           0
     14044 MEMB     105      POPC     H9Y      HAL2     0.900000E-01   1.00800           0
     14045 MEMB     105      POPC     C310     CTL2    -0.180000       12.0110           0
     14046 MEMB     105      POPC     H10X     HAL2     0.900000E-01   1.00800           0
     14047 MEMB     105      POPC     H10Y     HAL2     0.900000E-01   1.00800           0
     14048 MEMB     105      POPC     C311     CTL2    -0.180000       12.0110           0
     14049 MEMB     105      POPC     H11X     HAL2     0.900000E-01   1.00800           0
     14050 MEMB     105      POPC     H11Y     HAL2     0.900000E-01   1.00800           0
     14051 MEMB     105      POPC     C312     CTL2    -0.180000       12.0110           0
     14052 MEMB     105      POPC     H12X     HAL2     0.900000E-01   1.00800           0
     14053 MEMB     105      POPC     H12Y     HAL2     0.900000E-01   1.00800           0
     14054 MEMB     105      POPC     C313     CTL2    -0.180000       12.0110           0
     14055 MEMB     105      POPC     H13X     HAL2     0.900000E-01   1.00800           0
     14056 MEMB     105      POPC     H13Y     HAL2     0.900000E-01   1.00800           0
     14057 MEMB     105      POPC     C314     CTL2    -0.180000       12.0110           0
     14058 MEMB     105      POPC     H14X     HAL2     0.900000E-01   1.00800           0
     14059 MEMB     105      POPC     H14Y     HAL2     0.900000E-01   1.00800           0
     14060 MEMB     105      POPC     C315     CTL2    -0.180000       12.0110           0
     14061 MEMB     105      POPC     H15X     HAL2     0.900000E-01   1.00800           0
     14062 MEMB     105      POPC     H15Y     HAL2     0.900000E-01   1.00800           0
     14063 MEMB     105      POPC     C316     CTL3    -0.270000       12.0110           0
     14064 MEMB     105      POPC     H16X     HAL3     0.900000E-01   1.00800           0
     14065 MEMB     105      POPC     H16Y     HAL3     0.900000E-01   1.00800           0
     14066 MEMB     105      POPC     H16Z     HAL3     0.900000E-01   1.00800           0
     14067 MEMB     106      POPS     N        NH3L    -0.300000       14.0070           0
     14068 MEMB     106      POPS     HN1      HCL      0.330000       1.00800           0
     14069 MEMB     106      POPS     HN2      HCL      0.330000       1.00800           0
     14070 MEMB     106      POPS     HN3      HCL      0.330000       1.00800           0
     14071 MEMB     106      POPS     C12      CTL1     0.210000       12.0110           0
     14072 MEMB     106      POPS     H12A     HBL      0.100000       1.00800           0
     14073 MEMB     106      POPS     C13      CCL      0.340000       12.0110           0
     14074 MEMB     106      POPS     O13A     OCL     -0.670000       15.9994           0
     14075 MEMB     106      POPS     O13B     OCL     -0.670000       15.9994           0
     14076 MEMB     106      POPS     C11      CTL2    -0.800000E-01   12.0110           0
     14077 MEMB     106      POPS     H11A     HAL2     0.900000E-01   1.00800           0
     14078 MEMB     106      POPS     H11B     HAL2     0.900000E-01   1.00800           0
     14079 MEMB     106      POPS     P        PL       1.500000       30.9740           0
     14080 MEMB     106      POPS     O13      O2L     -0.780000       15.9994           0
     14081 MEMB     106      POPS     O14      O2L     -0.780000       15.9994           0
     14082 MEMB     106      POPS     O12      OSLP    -0.570000       15.9994           0
     14083 MEMB     106      POPS     O11      OSLP    -0.570000       15.9994           0
     14084 MEMB     106      POPS     C1       CTL2    -0.800000E-01   12.0110           0
     14085 MEMB     106      POPS     HA       HAL2     0.900000E-01   1.00800           0
     14086 MEMB     106      POPS     HB       HAL2     0.900000E-01   1.00800           0
     14087 MEMB     106      POPS     C2       CTL1     0.170000       12.0110           0
     14088 MEMB     106      POPS     HS       HAL1     0.900000E-01   1.00800           0
     14089 MEMB     106      POPS     O21      OSL     -0.490000       15.9994           0
     14090 MEMB     106      POPS     C21      CL       0.900000       12.0110           0
     14091 MEMB     106      POPS     O22      OBL     -0.630000       15.9994           0
     14092 MEMB     106      POPS     C22      CTL2    -0.220000       12.0110           0
     14093 MEMB     106      POPS     H2R      HAL2     0.900000E-01   1.00800           0
     14094 MEMB     106      POPS     H2S      HAL2     0.900000E-01   1.00800           0
     14095 MEMB     106      POPS     C3       CTL2     0.800000E-01   12.0110           0
     14096 MEMB     106      POPS     HX       HAL2     0.900000E-01   1.00800           0
     14097 MEMB     106      POPS     HY       HAL2     0.900000E-01   1.00800           0
     14098 MEMB     106      POPS     O31      OSL     -0.490000       15.9994           0
     14099 MEMB     106      POPS     C31      CL       0.900000       12.0110           0
     14100 MEMB     106      POPS     O32      OBL     -0.630000       15.9994           0
     14101 MEMB     106      POPS     C32      CTL2    -0.220000       12.0110           0
     14102 MEMB     106      POPS     H2X      HAL2     0.900000E-01   1.00800           0
     14103 MEMB     106      POPS     H2Y      HAL2     0.900000E-01   1.00800           0
     14104 MEMB     106      POPS     C23      CTL2    -0.180000       12.0110           0
     14105 MEMB     106      POPS     H3R      HAL2     0.900000E-01   1.00800           0
     14106 MEMB     106      POPS     H3S      HAL2     0.900000E-01   1.00800           0
     14107 MEMB     106      POPS     C24      CTL2    -0.180000       12.0110           0
     14108 MEMB     106      POPS     H4R      HAL2     0.900000E-01   1.00800           0
     14109 MEMB     106      POPS     H4S      HAL2     0.900000E-01   1.00800           0
     14110 MEMB     106      POPS     C25      CTL2    -0.180000       12.0110           0
     14111 MEMB     106      POPS     H5R      HAL2     0.900000E-01   1.00800           0
     14112 MEMB     106      POPS     H5S      HAL2     0.900000E-01   1.00800           0
     14113 MEMB     106      POPS     C26      CTL2    -0.180000       12.0110           0
     14114 MEMB     106      POPS     H6R      HAL2     0.900000E-01   1.00800           0
     14115 MEMB     106      POPS     H6S      HAL2     0.900000E-01   1.00800           0
     14116 MEMB     106      POPS     C27      CTL2    -0.180000       12.0110           0
     14117 MEMB     106      POPS     H7R      HAL2     0.900000E-01   1.00800           0
     14118 MEMB     106      POPS     H7S      HAL2     0.900000E-01   1.00800           0
     14119 MEMB     106      POPS     C28      CTL2    -0.180000       12.0110           0
     14120 MEMB     106      POPS     H8R      HAL2     0.900000E-01   1.00800           0
     14121 MEMB     106      POPS     H8S      HAL2     0.900000E-01   1.00800           0
     14122 MEMB     106      POPS     C29      CEL1    -0.150000       12.0110           0
     14123 MEMB     106      POPS     H91      HEL1     0.150000       1.00800           0
     14124 MEMB     106      POPS     C210     CEL1    -0.150000       12.0110           0
     14125 MEMB     106      POPS     H101     HEL1     0.150000       1.00800           0
     14126 MEMB     106      POPS     C211     CTL2    -0.180000       12.0110           0
     14127 MEMB     106      POPS     H11R     HAL2     0.900000E-01   1.00800           0
     14128 MEMB     106      POPS     H11S     HAL2     0.900000E-01   1.00800           0
     14129 MEMB     106      POPS     C212     CTL2    -0.180000       12.0110           0
     14130 MEMB     106      POPS     H12R     HAL2     0.900000E-01   1.00800           0
     14131 MEMB     106      POPS     H12S     HAL2     0.900000E-01   1.00800           0
     14132 MEMB     106      POPS     C213     CTL2    -0.180000       12.0110           0
     14133 MEMB     106      POPS     H13R     HAL2     0.900000E-01   1.00800           0
     14134 MEMB     106      POPS     H13S     HAL2     0.900000E-01   1.00800           0
     14135 MEMB     106      POPS     C214     CTL2    -0.180000       12.0110           0
     14136 MEMB     106      POPS     H14R     HAL2     0.900000E-01   1.00800           0
     14137 MEMB     106      POPS     H14S     HAL2     0.900000E-01   1.00800           0
     14138 MEMB     106      POPS     C215     CTL2    -0.180000       12.0110           0
     14139 MEMB     106      POPS     H15R     HAL2     0.900000E-01   1.00800           0
     14140 MEMB     106      POPS     H15S     HAL2     0.900000E-01   1.00800           0
     14141 MEMB     106      POPS     C216     CTL2    -0.180000       12.0110           0
     14142 MEMB     106      POPS     H16R     HAL2     0.900000E-01   1.00800           0
     14143 MEMB     106      POPS     H16S     HAL2     0.900000E-01   1.00800           0
     14144 MEMB     106      POPS     C217     CTL2    -0.180000       12.0110           0
     14145 MEMB     106      POPS     H17R     HAL2     0.900000E-01   1.00800           0
     14146 MEMB     106      POPS     H17S     HAL2     0.900000E-01   1.00800           0
     14147 MEMB     106      POPS     C218     CTL3    -0.270000       12.0110           0
     14148 MEMB     106      POPS     H18R     HAL3     0.900000E-01   1.00800           0
     14149 MEMB     106      POPS     H18S     HAL3     0.900000E-01   1.00800           0
     14150 MEMB     106      POPS     H18T     HAL3     0.900000E-01   1.00800           0
     14151 MEMB     106      POPS     C33      CTL2    -0.180000       12.0110           0
     14152 MEMB     106      POPS     H3X      HAL2     0.900000E-01   1.00800           0
     14153 MEMB     106      POPS     H3Y      HAL2     0.900000E-01   1.00800           0
     14154 MEMB     106      POPS     C34      CTL2    -0.180000       12.0110           0
     14155 MEMB     106      POPS     H4X      HAL2     0.900000E-01   1.00800           0
     14156 MEMB     106      POPS     H4Y      HAL2     0.900000E-01   1.00800           0
     14157 MEMB     106      POPS     C35      CTL2    -0.180000       12.0110           0
     14158 MEMB     106      POPS     H5X      HAL2     0.900000E-01   1.00800           0
     14159 MEMB     106      POPS     H5Y      HAL2     0.900000E-01   1.00800           0
     14160 MEMB     106      POPS     C36      CTL2    -0.180000       12.0110           0
     14161 MEMB     106      POPS     H6X      HAL2     0.900000E-01   1.00800           0
     14162 MEMB     106      POPS     H6Y      HAL2     0.900000E-01   1.00800           0
     14163 MEMB     106      POPS     C37      CTL2    -0.180000       12.0110           0
     14164 MEMB     106      POPS     H7X      HAL2     0.900000E-01   1.00800           0
     14165 MEMB     106      POPS     H7Y      HAL2     0.900000E-01   1.00800           0
     14166 MEMB     106      POPS     C38      CTL2    -0.180000       12.0110           0
     14167 MEMB     106      POPS     H8X      HAL2     0.900000E-01   1.00800           0
     14168 MEMB     106      POPS     H8Y      HAL2     0.900000E-01   1.00800           0
     14169 MEMB     106      POPS     C39      CTL2    -0.180000       12.0110           0
     14170 MEMB     106      POPS     H9X      HAL2     0.900000E-01   1.00800           0
     14171 MEMB     106      POPS     H9Y      HAL2     0.900000E-01   1.00800           0
     14172 MEMB     106      POPS     C310     CTL2    -0.180000       12.0110           0
     14173 MEMB     106      POPS     H10X     HAL2     0.900000E-01   1.00800           0
     14174 MEMB     106      POPS     H10Y     HAL2     0.900000E-01   1.00800           0
     14175 MEMB     106      POPS     C311     CTL2    -0.180000       12.0110           0
     14176 MEMB     106      POPS     H11X     HAL2     0.900000E-01   1.00800           0
     14177 MEMB     106      POPS     H11Y     HAL2     0.900000E-01   1.00800           0
     14178 MEMB     106      POPS     C312     CTL2    -0.180000       12.0110           0
     14179 MEMB     106      POPS     H12X     HAL2     0.900000E-01   1.00800           0
     14180 MEMB     106      POPS     H12Y     HAL2     0.900000E-01   1.00800           0
     14181 MEMB     106      POPS     C313     CTL2    -0.180000       12.0110           0
     14182 MEMB     106      POPS     H13X     HAL2     0.900000E-01   1.00800           0
     14183 MEMB     106      POPS     H13Y     HAL2     0.900000E-01   1.00800           0
     14184 MEMB     106      POPS     C314     CTL2    -0.180000       12.0110           0
     14185 MEMB     106      POPS     H14X     HAL2     0.900000E-01   1.00800           0
     14186 MEMB     106      POPS     H14Y     HAL2     0.900000E-01   1.00800           0
     14187 MEMB     106      POPS     C315     CTL2    -0.180000       12.0110           0
     14188 MEMB     106      POPS     H15X     HAL2     0.900000E-01   1.00800           0
     14189 MEMB     106      POPS     H15Y     HAL2     0.900000E-01   1.00800           0
     14190 MEMB     106      POPS     C316     CTL3    -0.270000       12.0110           0
     14191 MEMB     106      POPS     H16X     HAL3     0.900000E-01   1.00800           0
     14192 MEMB     106      POPS     H16Y     HAL3     0.900000E-01   1.00800           0
     14193 MEMB     106      POPS     H16Z     HAL3     0.900000E-01   1.00800           0
     14194 MEMB     107      POPC     N        NTL     -0.600000       14.0070           0
     14195 MEMB     107      POPC     C12      CTL2    -0.100000       12.0110           0
     14196 MEMB     107      POPC     H12A     HL       0.250000       1.00800           0
     14197 MEMB     107      POPC     H12B     HL       0.250000       1.00800           0
     14198 MEMB     107      POPC     C13      CTL5    -0.350000       12.0110           0
     14199 MEMB     107      POPC     H13A     HL       0.250000       1.00800           0
     14200 MEMB     107      POPC     H13B     HL       0.250000       1.00800           0
     14201 MEMB     107      POPC     H13C     HL       0.250000       1.00800           0
     14202 MEMB     107      POPC     C14      CTL5    -0.350000       12.0110           0
     14203 MEMB     107      POPC     H14A     HL       0.250000       1.00800           0
     14204 MEMB     107      POPC     H14B     HL       0.250000       1.00800           0
     14205 MEMB     107      POPC     H14C     HL       0.250000       1.00800           0
     14206 MEMB     107      POPC     C15      CTL5    -0.350000       12.0110           0
     14207 MEMB     107      POPC     H15A     HL       0.250000       1.00800           0
     14208 MEMB     107      POPC     H15B     HL       0.250000       1.00800           0
     14209 MEMB     107      POPC     H15C     HL       0.250000       1.00800           0
     14210 MEMB     107      POPC     C11      CTL2    -0.800000E-01   12.0110           0
     14211 MEMB     107      POPC     H11A     HAL2     0.900000E-01   1.00800           0
     14212 MEMB     107      POPC     H11B     HAL2     0.900000E-01   1.00800           0
     14213 MEMB     107      POPC     P        PL       1.500000       30.9740           0
     14214 MEMB     107      POPC     O13      O2L     -0.780000       15.9994           0
     14215 MEMB     107      POPC     O14      O2L     -0.780000       15.9994           0
     14216 MEMB     107      POPC     O12      OSLP    -0.570000       15.9994           0
     14217 MEMB     107      POPC     O11      OSLP    -0.570000       15.9994           0
     14218 MEMB     107      POPC     C1       CTL2    -0.800000E-01   12.0110           0
     14219 MEMB     107      POPC     HA       HAL2     0.900000E-01   1.00800           0
     14220 MEMB     107      POPC     HB       HAL2     0.900000E-01   1.00800           0
     14221 MEMB     107      POPC     C2       CTL1     0.170000       12.0110           0
     14222 MEMB     107      POPC     HS       HAL1     0.900000E-01   1.00800           0
     14223 MEMB     107      POPC     O21      OSL     -0.490000       15.9994           0
     14224 MEMB     107      POPC     C21      CL       0.900000       12.0110           0
     14225 MEMB     107      POPC     O22      OBL     -0.630000       15.9994           0
     14226 MEMB     107      POPC     C22      CTL2    -0.220000       12.0110           0
     14227 MEMB     107      POPC     H2R      HAL2     0.900000E-01   1.00800           0
     14228 MEMB     107      POPC     H2S      HAL2     0.900000E-01   1.00800           0
     14229 MEMB     107      POPC     C3       CTL2     0.800000E-01   12.0110           0
     14230 MEMB     107      POPC     HX       HAL2     0.900000E-01   1.00800           0
     14231 MEMB     107      POPC     HY       HAL2     0.900000E-01   1.00800           0
     14232 MEMB     107      POPC     O31      OSL     -0.490000       15.9994           0
     14233 MEMB     107      POPC     C31      CL       0.900000       12.0110           0
     14234 MEMB     107      POPC     O32      OBL     -0.630000       15.9994           0
     14235 MEMB     107      POPC     C32      CTL2    -0.220000       12.0110           0
     14236 MEMB     107      POPC     H2X      HAL2     0.900000E-01   1.00800           0
     14237 MEMB     107      POPC     H2Y      HAL2     0.900000E-01   1.00800           0
     14238 MEMB     107      POPC     C23      CTL2    -0.180000       12.0110           0
     14239 MEMB     107      POPC     H3R      HAL2     0.900000E-01   1.00800           0
     14240 MEMB     107      POPC     H3S      HAL2     0.900000E-01   1.00800           0
     14241 MEMB     107      POPC     C24      CTL2    -0.180000       12.0110           0
     14242 MEMB     107      POPC     H4R      HAL2     0.900000E-01   1.00800           0
     14243 MEMB     107      POPC     H4S      HAL2     0.900000E-01   1.00800           0
     14244 MEMB     107      POPC     C25      CTL2    -0.180000       12.0110           0
     14245 MEMB     107      POPC     H5R      HAL2     0.900000E-01   1.00800           0
     14246 MEMB     107      POPC     H5S      HAL2     0.900000E-01   1.00800           0
     14247 MEMB     107      POPC     C26      CTL2    -0.180000       12.0110           0
     14248 MEMB     107      POPC     H6R      HAL2     0.900000E-01   1.00800           0
     14249 MEMB     107      POPC     H6S      HAL2     0.900000E-01   1.00800           0
     14250 MEMB     107      POPC     C27      CTL2    -0.180000       12.0110           0
     14251 MEMB     107      POPC     H7R      HAL2     0.900000E-01   1.00800           0
     14252 MEMB     107      POPC     H7S      HAL2     0.900000E-01   1.00800           0
     14253 MEMB     107      POPC     C28      CTL2    -0.180000       12.0110           0
     14254 MEMB     107      POPC     H8R      HAL2     0.900000E-01   1.00800           0
     14255 MEMB     107      POPC     H8S      HAL2     0.900000E-01   1.00800           0
     14256 MEMB     107      POPC     C29      CEL1    -0.150000       12.0110           0
     14257 MEMB     107      POPC     H91      HEL1     0.150000       1.00800           0
     14258 MEMB     107      POPC     C210     CEL1    -0.150000       12.0110           0
     14259 MEMB     107      POPC     H101     HEL1     0.150000       1.00800           0
     14260 MEMB     107      POPC     C211     CTL2    -0.180000       12.0110           0
     14261 MEMB     107      POPC     H11R     HAL2     0.900000E-01   1.00800           0
     14262 MEMB     107      POPC     H11S     HAL2     0.900000E-01   1.00800           0
     14263 MEMB     107      POPC     C212     CTL2    -0.180000       12.0110           0
     14264 MEMB     107      POPC     H12R     HAL2     0.900000E-01   1.00800           0
     14265 MEMB     107      POPC     H12S     HAL2     0.900000E-01   1.00800           0
     14266 MEMB     107      POPC     C213     CTL2    -0.180000       12.0110           0
     14267 MEMB     107      POPC     H13R     HAL2     0.900000E-01   1.00800           0
     14268 MEMB     107      POPC     H13S     HAL2     0.900000E-01   1.00800           0
     14269 MEMB     107      POPC     C214     CTL2    -0.180000       12.0110           0
     14270 MEMB     107      POPC     H14R     HAL2     0.900000E-01   1.00800           0
     14271 MEMB     107      POPC     H14S     HAL2     0.900000E-01   1.00800           0
     14272 MEMB     107      POPC     C215     CTL2    -0.180000       12.0110           0
     14273 MEMB     107      POPC     H15R     HAL2     0.900000E-01   1.00800           0
     14274 MEMB     107      POPC     H15S     HAL2     0.900000E-01   1.00800           0
     14275 MEMB     107      POPC     C216     CTL2    -0.180000       12.0110           0
     14276 MEMB     107      POPC     H16R     HAL2     0.900000E-01   1.00800           0
     14277 MEMB     107      POPC     H16S     HAL2     0.900000E-01   1.00800           0
     14278 MEMB     107      POPC     C217     CTL2    -0.180000       12.0110           0
     14279 MEMB     107      POPC     H17R     HAL2     0.900000E-01   1.00800           0
     14280 MEMB     107      POPC     H17S     HAL2     0.900000E-01   1.00800           0
     14281 MEMB     107      POPC     C218     CTL3    -0.270000       12.0110           0
     14282 MEMB     107      POPC     H18R     HAL3     0.900000E-01   1.00800           0
     14283 MEMB     107      POPC     H18S     HAL3     0.900000E-01   1.00800           0
     14284 MEMB     107      POPC     H18T     HAL3     0.900000E-01   1.00800           0
     14285 MEMB     107      POPC     C33      CTL2    -0.180000       12.0110           0
     14286 MEMB     107      POPC     H3X      HAL2     0.900000E-01   1.00800           0
     14287 MEMB     107      POPC     H3Y      HAL2     0.900000E-01   1.00800           0
     14288 MEMB     107      POPC     C34      CTL2    -0.180000       12.0110           0
     14289 MEMB     107      POPC     H4X      HAL2     0.900000E-01   1.00800           0
     14290 MEMB     107      POPC     H4Y      HAL2     0.900000E-01   1.00800           0
     14291 MEMB     107      POPC     C35      CTL2    -0.180000       12.0110           0
     14292 MEMB     107      POPC     H5X      HAL2     0.900000E-01   1.00800           0
     14293 MEMB     107      POPC     H5Y      HAL2     0.900000E-01   1.00800           0
     14294 MEMB     107      POPC     C36      CTL2    -0.180000       12.0110           0
     14295 MEMB     107      POPC     H6X      HAL2     0.900000E-01   1.00800           0
     14296 MEMB     107      POPC     H6Y      HAL2     0.900000E-01   1.00800           0
     14297 MEMB     107      POPC     C37      CTL2    -0.180000       12.0110           0
     14298 MEMB     107      POPC     H7X      HAL2     0.900000E-01   1.00800           0
     14299 MEMB     107      POPC     H7Y      HAL2     0.900000E-01   1.00800           0
     14300 MEMB     107      POPC     C38      CTL2    -0.180000       12.0110           0
     14301 MEMB     107      POPC     H8X      HAL2     0.900000E-01   1.00800           0
     14302 MEMB     107      POPC     H8Y      HAL2     0.900000E-01   1.00800           0
     14303 MEMB     107      POPC     C39      CTL2    -0.180000       12.0110           0
     14304 MEMB     107      POPC     H9X      HAL2     0.900000E-01   1.00800           0
     14305 MEMB     107      POPC     H9Y      HAL2     0.900000E-01   1.00800           0
     14306 MEMB     107      POPC     C310     CTL2    -0.180000       12.0110           0
     14307 MEMB     107      POPC     H10X     HAL2     0.900000E-01   1.00800           0
     14308 MEMB     107      POPC     H10Y     HAL2     0.900000E-01   1.00800           0
     14309 MEMB     107      POPC     C311     CTL2    -0.180000       12.0110           0
     14310 MEMB     107      POPC     H11X     HAL2     0.900000E-01   1.00800           0
     14311 MEMB     107      POPC     H11Y     HAL2     0.900000E-01   1.00800           0
     14312 MEMB     107      POPC     C312     CTL2    -0.180000       12.0110           0
     14313 MEMB     107      POPC     H12X     HAL2     0.900000E-01   1.00800           0
     14314 MEMB     107      POPC     H12Y     HAL2     0.900000E-01   1.00800           0
     14315 MEMB     107      POPC     C313     CTL2    -0.180000       12.0110           0
     14316 MEMB     107      POPC     H13X     HAL2     0.900000E-01   1.00800           0
     14317 MEMB     107      POPC     H13Y     HAL2     0.900000E-01   1.00800           0
     14318 MEMB     107      POPC     C314     CTL2    -0.180000       12.0110           0
     14319 MEMB     107      POPC     H14X     HAL2     0.900000E-01   1.00800           0
     14320 MEMB     107      POPC     H14Y     HAL2     0.900000E-01   1.00800           0
     14321 MEMB     107      POPC     C315     CTL2    -0.180000       12.0110           0
     14322 MEMB     107      POPC     H15X     HAL2     0.900000E-01   1.00800           0
     14323 MEMB     107      POPC     H15Y     HAL2     0.900000E-01   1.00800           0
     14324 MEMB     107      POPC     C316     CTL3    -0.270000       12.0110           0
     14325 MEMB     107      POPC     H16X     HAL3     0.900000E-01   1.00800           0
     14326 MEMB     107      POPC     H16Y     HAL3     0.900000E-01   1.00800           0
     14327 MEMB     107      POPC     H16Z     HAL3     0.900000E-01   1.00800           0
     14328 MEMB     108      POPC     N        NTL     -0.600000       14.0070           0
     14329 MEMB     108      POPC     C12      CTL2    -0.100000       12.0110           0
     14330 MEMB     108      POPC     H12A     HL       0.250000       1.00800           0
     14331 MEMB     108      POPC     H12B     HL       0.250000       1.00800           0
     14332 MEMB     108      POPC     C13      CTL5    -0.350000       12.0110           0
     14333 MEMB     108      POPC     H13A     HL       0.250000       1.00800           0
     14334 MEMB     108      POPC     H13B     HL       0.250000       1.00800           0
     14335 MEMB     108      POPC     H13C     HL       0.250000       1.00800           0
     14336 MEMB     108      POPC     C14      CTL5    -0.350000       12.0110           0
     14337 MEMB     108      POPC     H14A     HL       0.250000       1.00800           0
     14338 MEMB     108      POPC     H14B     HL       0.250000       1.00800           0
     14339 MEMB     108      POPC     H14C     HL       0.250000       1.00800           0
     14340 MEMB     108      POPC     C15      CTL5    -0.350000       12.0110           0
     14341 MEMB     108      POPC     H15A     HL       0.250000       1.00800           0
     14342 MEMB     108      POPC     H15B     HL       0.250000       1.00800           0
     14343 MEMB     108      POPC     H15C     HL       0.250000       1.00800           0
     14344 MEMB     108      POPC     C11      CTL2    -0.800000E-01   12.0110           0
     14345 MEMB     108      POPC     H11A     HAL2     0.900000E-01   1.00800           0
     14346 MEMB     108      POPC     H11B     HAL2     0.900000E-01   1.00800           0
     14347 MEMB     108      POPC     P        PL       1.500000       30.9740           0
     14348 MEMB     108      POPC     O13      O2L     -0.780000       15.9994           0
     14349 MEMB     108      POPC     O14      O2L     -0.780000       15.9994           0
     14350 MEMB     108      POPC     O12      OSLP    -0.570000       15.9994           0
     14351 MEMB     108      POPC     O11      OSLP    -0.570000       15.9994           0
     14352 MEMB     108      POPC     C1       CTL2    -0.800000E-01   12.0110           0
     14353 MEMB     108      POPC     HA       HAL2     0.900000E-01   1.00800           0
     14354 MEMB     108      POPC     HB       HAL2     0.900000E-01   1.00800           0
     14355 MEMB     108      POPC     C2       CTL1     0.170000       12.0110           0
     14356 MEMB     108      POPC     HS       HAL1     0.900000E-01   1.00800           0
     14357 MEMB     108      POPC     O21      OSL     -0.490000       15.9994           0
     14358 MEMB     108      POPC     C21      CL       0.900000       12.0110           0
     14359 MEMB     108      POPC     O22      OBL     -0.630000       15.9994           0
     14360 MEMB     108      POPC     C22      CTL2    -0.220000       12.0110           0
     14361 MEMB     108      POPC     H2R      HAL2     0.900000E-01   1.00800           0
     14362 MEMB     108      POPC     H2S      HAL2     0.900000E-01   1.00800           0
     14363 MEMB     108      POPC     C3       CTL2     0.800000E-01   12.0110           0
     14364 MEMB     108      POPC     HX       HAL2     0.900000E-01   1.00800           0
     14365 MEMB     108      POPC     HY       HAL2     0.900000E-01   1.00800           0
     14366 MEMB     108      POPC     O31      OSL     -0.490000       15.9994           0
     14367 MEMB     108      POPC     C31      CL       0.900000       12.0110           0
     14368 MEMB     108      POPC     O32      OBL     -0.630000       15.9994           0
     14369 MEMB     108      POPC     C32      CTL2    -0.220000       12.0110           0
     14370 MEMB     108      POPC     H2X      HAL2     0.900000E-01   1.00800           0
     14371 MEMB     108      POPC     H2Y      HAL2     0.900000E-01   1.00800           0
     14372 MEMB     108      POPC     C23      CTL2    -0.180000       12.0110           0
     14373 MEMB     108      POPC     H3R      HAL2     0.900000E-01   1.00800           0
     14374 MEMB     108      POPC     H3S      HAL2     0.900000E-01   1.00800           0
     14375 MEMB     108      POPC     C24      CTL2    -0.180000       12.0110           0
     14376 MEMB     108      POPC     H4R      HAL2     0.900000E-01   1.00800           0
     14377 MEMB     108      POPC     H4S      HAL2     0.900000E-01   1.00800           0
     14378 MEMB     108      POPC     C25      CTL2    -0.180000       12.0110           0
     14379 MEMB     108      POPC     H5R      HAL2     0.900000E-01   1.00800           0
     14380 MEMB     108      POPC     H5S      HAL2     0.900000E-01   1.00800           0
     14381 MEMB     108      POPC     C26      CTL2    -0.180000       12.0110           0
     14382 MEMB     108      POPC     H6R      HAL2     0.900000E-01   1.00800           0
     14383 MEMB     108      POPC     H6S      HAL2     0.900000E-01   1.00800           0
     14384 MEMB     108      POPC     C27      CTL2    -0.180000       12.0110           0
     14385 MEMB     108      POPC     H7R      HAL2     0.900000E-01   1.00800           0
     14386 MEMB     108      POPC     H7S      HAL2     0.900000E-01   1.00800           0
     14387 MEMB     108      POPC     C28      CTL2    -0.180000       12.0110           0
     14388 MEMB     108      POPC     H8R      HAL2     0.900000E-01   1.00800           0
     14389 MEMB     108      POPC     H8S      HAL2     0.900000E-01   1.00800           0
     14390 MEMB     108      POPC     C29      CEL1    -0.150000       12.0110           0
     14391 MEMB     108      POPC     H91      HEL1     0.150000       1.00800           0
     14392 MEMB     108      POPC     C210     CEL1    -0.150000       12.0110           0
     14393 MEMB     108      POPC     H101     HEL1     0.150000       1.00800           0
     14394 MEMB     108      POPC     C211     CTL2    -0.180000       12.0110           0
     14395 MEMB     108      POPC     H11R     HAL2     0.900000E-01   1.00800           0
     14396 MEMB     108      POPC     H11S     HAL2     0.900000E-01   1.00800           0
     14397 MEMB     108      POPC     C212     CTL2    -0.180000       12.0110           0
     14398 MEMB     108      POPC     H12R     HAL2     0.900000E-01   1.00800           0
     14399 MEMB     108      POPC     H12S     HAL2     0.900000E-01   1.00800           0
     14400 MEMB     108      POPC     C213     CTL2    -0.180000       12.0110           0
     14401 MEMB     108      POPC     H13R     HAL2     0.900000E-01   1.00800           0
     14402 MEMB     108      POPC     H13S     HAL2     0.900000E-01   1.00800           0
     14403 MEMB     108      POPC     C214     CTL2    -0.180000       12.0110           0
     14404 MEMB     108      POPC     H14R     HAL2     0.900000E-01   1.00800           0
     14405 MEMB     108      POPC     H14S     HAL2     0.900000E-01   1.00800           0
     14406 MEMB     108      POPC     C215     CTL2    -0.180000       12.0110           0
     14407 MEMB     108      POPC     H15R     HAL2     0.900000E-01   1.00800           0
     14408 MEMB     108      POPC     H15S     HAL2     0.900000E-01   1.00800           0
     14409 MEMB     108      POPC     C216     CTL2    -0.180000       12.0110           0
     14410 MEMB     108      POPC     H16R     HAL2     0.900000E-01   1.00800           0
     14411 MEMB     108      POPC     H16S     HAL2     0.900000E-01   1.00800           0
     14412 MEMB     108      POPC     C217     CTL2    -0.180000       12.0110           0
     14413 MEMB     108      POPC     H17R     HAL2     0.900000E-01   1.00800           0
     14414 MEMB     108      POPC     H17S     HAL2     0.900000E-01   1.00800           0
     14415 MEMB     108      POPC     C218     CTL3    -0.270000       12.0110           0
     14416 MEMB     108      POPC     H18R     HAL3     0.900000E-01   1.00800           0
     14417 MEMB     108      POPC     H18S     HAL3     0.900000E-01   1.00800           0
     14418 MEMB     108      POPC     H18T     HAL3     0.900000E-01   1.00800           0
     14419 MEMB     108      POPC     C33      CTL2    -0.180000       12.0110           0
     14420 MEMB     108      POPC     H3X      HAL2     0.900000E-01   1.00800           0
     14421 MEMB     108      POPC     H3Y      HAL2     0.900000E-01   1.00800           0
     14422 MEMB     108      POPC     C34      CTL2    -0.180000       12.0110           0
     14423 MEMB     108      POPC     H4X      HAL2     0.900000E-01   1.00800           0
     14424 MEMB     108      POPC     H4Y      HAL2     0.900000E-01   1.00800           0
     14425 MEMB     108      POPC     C35      CTL2    -0.180000       12.0110           0
     14426 MEMB     108      POPC     H5X      HAL2     0.900000E-01   1.00800           0
     14427 MEMB     108      POPC     H5Y      HAL2     0.900000E-01   1.00800           0
     14428 MEMB     108      POPC     C36      CTL2    -0.180000       12.0110           0
     14429 MEMB     108      POPC     H6X      HAL2     0.900000E-01   1.00800           0
     14430 MEMB     108      POPC     H6Y      HAL2     0.900000E-01   1.00800           0
     14431 MEMB     108      POPC     C37      CTL2    -0.180000       12.0110           0
     14432 MEMB     108      POPC     H7X      HAL2     0.900000E-01   1.00800           0
     14433 MEMB     108      POPC     H7Y      HAL2     0.900000E-01   1.00800           0
     14434 MEMB     108      POPC     C38      CTL2    -0.180000       12.0110           0
     14435 MEMB     108      POPC     H8X      HAL2     0.900000E-01   1.00800           0
     14436 MEMB     108      POPC     H8Y      HAL2     0.900000E-01   1.00800           0
     14437 MEMB     108      POPC     C39      CTL2    -0.180000       12.0110           0
     14438 MEMB     108      POPC     H9X      HAL2     0.900000E-01   1.00800           0
     14439 MEMB     108      POPC     H9Y      HAL2     0.900000E-01   1.00800           0
     14440 MEMB     108      POPC     C310     CTL2    -0.180000       12.0110           0
     14441 MEMB     108      POPC     H10X     HAL2     0.900000E-01   1.00800           0
     14442 MEMB     108      POPC     H10Y     HAL2     0.900000E-01   1.00800           0
     14443 MEMB     108      POPC     C311     CTL2    -0.180000       12.0110           0
     14444 MEMB     108      POPC     H11X     HAL2     0.900000E-01   1.00800           0
     14445 MEMB     108      POPC     H11Y     HAL2     0.900000E-01   1.00800           0
     14446 MEMB     108      POPC     C312     CTL2    -0.180000       12.0110           0
     14447 MEMB     108      POPC     H12X     HAL2     0.900000E-01   1.00800           0
     14448 MEMB     108      POPC     H12Y     HAL2     0.900000E-01   1.00800           0
     14449 MEMB     108      POPC     C313     CTL2    -0.180000       12.0110           0
     14450 MEMB     108      POPC     H13X     HAL2     0.900000E-01   1.00800           0
     14451 MEMB     108      POPC     H13Y     HAL2     0.900000E-01   1.00800           0
     14452 MEMB     108      POPC     C314     CTL2    -0.180000       12.0110           0
     14453 MEMB     108      POPC     H14X     HAL2     0.900000E-01   1.00800           0
     14454 MEMB     108      POPC     H14Y     HAL2     0.900000E-01   1.00800           0
     14455 MEMB     108      POPC     C315     CTL2    -0.180000       12.0110           0
     14456 MEMB     108      POPC     H15X     HAL2     0.900000E-01   1.00800           0
     14457 MEMB     108      POPC     H15Y     HAL2     0.900000E-01   1.00800           0
     14458 MEMB     108      POPC     C316     CTL3    -0.270000       12.0110           0
     14459 MEMB     108      POPC     H16X     HAL3     0.900000E-01   1.00800           0
     14460 MEMB     108      POPC     H16Y     HAL3     0.900000E-01   1.00800           0
     14461 MEMB     108      POPC     H16Z     HAL3     0.900000E-01   1.00800           0
     14462 MEMB     109      POPC     N        NTL     -0.600000       14.0070           0
     14463 MEMB     109      POPC     C12      CTL2    -0.100000       12.0110           0
     14464 MEMB     109      POPC     H12A     HL       0.250000       1.00800           0
     14465 MEMB     109      POPC     H12B     HL       0.250000       1.00800           0
     14466 MEMB     109      POPC     C13      CTL5    -0.350000       12.0110           0
     14467 MEMB     109      POPC     H13A     HL       0.250000       1.00800           0
     14468 MEMB     109      POPC     H13B     HL       0.250000       1.00800           0
     14469 MEMB     109      POPC     H13C     HL       0.250000       1.00800           0
     14470 MEMB     109      POPC     C14      CTL5    -0.350000       12.0110           0
     14471 MEMB     109      POPC     H14A     HL       0.250000       1.00800           0
     14472 MEMB     109      POPC     H14B     HL       0.250000       1.00800           0
     14473 MEMB     109      POPC     H14C     HL       0.250000       1.00800           0
     14474 MEMB     109      POPC     C15      CTL5    -0.350000       12.0110           0
     14475 MEMB     109      POPC     H15A     HL       0.250000       1.00800           0
     14476 MEMB     109      POPC     H15B     HL       0.250000       1.00800           0
     14477 MEMB     109      POPC     H15C     HL       0.250000       1.00800           0
     14478 MEMB     109      POPC     C11      CTL2    -0.800000E-01   12.0110           0
     14479 MEMB     109      POPC     H11A     HAL2     0.900000E-01   1.00800           0
     14480 MEMB     109      POPC     H11B     HAL2     0.900000E-01   1.00800           0
     14481 MEMB     109      POPC     P        PL       1.500000       30.9740           0
     14482 MEMB     109      POPC     O13      O2L     -0.780000       15.9994           0
     14483 MEMB     109      POPC     O14      O2L     -0.780000       15.9994           0
     14484 MEMB     109      POPC     O12      OSLP    -0.570000       15.9994           0
     14485 MEMB     109      POPC     O11      OSLP    -0.570000       15.9994           0
     14486 MEMB     109      POPC     C1       CTL2    -0.800000E-01   12.0110           0
     14487 MEMB     109      POPC     HA       HAL2     0.900000E-01   1.00800           0
     14488 MEMB     109      POPC     HB       HAL2     0.900000E-01   1.00800           0
     14489 MEMB     109      POPC     C2       CTL1     0.170000       12.0110           0
     14490 MEMB     109      POPC     HS       HAL1     0.900000E-01   1.00800           0
     14491 MEMB     109      POPC     O21      OSL     -0.490000       15.9994           0
     14492 MEMB     109      POPC     C21      CL       0.900000       12.0110           0
     14493 MEMB     109      POPC     O22      OBL     -0.630000       15.9994           0
     14494 MEMB     109      POPC     C22      CTL2    -0.220000       12.0110           0
     14495 MEMB     109      POPC     H2R      HAL2     0.900000E-01   1.00800           0
     14496 MEMB     109      POPC     H2S      HAL2     0.900000E-01   1.00800           0
     14497 MEMB     109      POPC     C3       CTL2     0.800000E-01   12.0110           0
     14498 MEMB     109      POPC     HX       HAL2     0.900000E-01   1.00800           0
     14499 MEMB     109      POPC     HY       HAL2     0.900000E-01   1.00800           0
     14500 MEMB     109      POPC     O31      OSL     -0.490000       15.9994           0
     14501 MEMB     109      POPC     C31      CL       0.900000       12.0110           0
     14502 MEMB     109      POPC     O32      OBL     -0.630000       15.9994           0
     14503 MEMB     109      POPC     C32      CTL2    -0.220000       12.0110           0
     14504 MEMB     109      POPC     H2X      HAL2     0.900000E-01   1.00800           0
     14505 MEMB     109      POPC     H2Y      HAL2     0.900000E-01   1.00800           0
     14506 MEMB     109      POPC     C23      CTL2    -0.180000       12.0110           0
     14507 MEMB     109      POPC     H3R      HAL2     0.900000E-01   1.00800           0
     14508 MEMB     109      POPC     H3S      HAL2     0.900000E-01   1.00800           0
     14509 MEMB     109      POPC     C24      CTL2    -0.180000       12.0110           0
     14510 MEMB     109      POPC     H4R      HAL2     0.900000E-01   1.00800           0
     14511 MEMB     109      POPC     H4S      HAL2     0.900000E-01   1.00800           0
     14512 MEMB     109      POPC     C25      CTL2    -0.180000       12.0110           0
     14513 MEMB     109      POPC     H5R      HAL2     0.900000E-01   1.00800           0
     14514 MEMB     109      POPC     H5S      HAL2     0.900000E-01   1.00800           0
     14515 MEMB     109      POPC     C26      CTL2    -0.180000       12.0110           0
     14516 MEMB     109      POPC     H6R      HAL2     0.900000E-01   1.00800           0
     14517 MEMB     109      POPC     H6S      HAL2     0.900000E-01   1.00800           0
     14518 MEMB     109      POPC     C27      CTL2    -0.180000       12.0110           0
     14519 MEMB     109      POPC     H7R      HAL2     0.900000E-01   1.00800           0
     14520 MEMB     109      POPC     H7S      HAL2     0.900000E-01   1.00800           0
     14521 MEMB     109      POPC     C28      CTL2    -0.180000       12.0110           0
     14522 MEMB     109      POPC     H8R      HAL2     0.900000E-01   1.00800           0
     14523 MEMB     109      POPC     H8S      HAL2     0.900000E-01   1.00800           0
     14524 MEMB     109      POPC     C29      CEL1    -0.150000       12.0110           0
     14525 MEMB     109      POPC     H91      HEL1     0.150000       1.00800           0
     14526 MEMB     109      POPC     C210     CEL1    -0.150000       12.0110           0
     14527 MEMB     109      POPC     H101     HEL1     0.150000       1.00800           0
     14528 MEMB     109      POPC     C211     CTL2    -0.180000       12.0110           0
     14529 MEMB     109      POPC     H11R     HAL2     0.900000E-01   1.00800           0
     14530 MEMB     109      POPC     H11S     HAL2     0.900000E-01   1.00800           0
     14531 MEMB     109      POPC     C212     CTL2    -0.180000       12.0110           0
     14532 MEMB     109      POPC     H12R     HAL2     0.900000E-01   1.00800           0
     14533 MEMB     109      POPC     H12S     HAL2     0.900000E-01   1.00800           0
     14534 MEMB     109      POPC     C213     CTL2    -0.180000       12.0110           0
     14535 MEMB     109      POPC     H13R     HAL2     0.900000E-01   1.00800           0
     14536 MEMB     109      POPC     H13S     HAL2     0.900000E-01   1.00800           0
     14537 MEMB     109      POPC     C214     CTL2    -0.180000       12.0110           0
     14538 MEMB     109      POPC     H14R     HAL2     0.900000E-01   1.00800           0
     14539 MEMB     109      POPC     H14S     HAL2     0.900000E-01   1.00800           0
     14540 MEMB     109      POPC     C215     CTL2    -0.180000       12.0110           0
     14541 MEMB     109      POPC     H15R     HAL2     0.900000E-01   1.00800           0
     14542 MEMB     109      POPC     H15S     HAL2     0.900000E-01   1.00800           0
     14543 MEMB     109      POPC     C216     CTL2    -0.180000       12.0110           0
     14544 MEMB     109      POPC     H16R     HAL2     0.900000E-01   1.00800           0
     14545 MEMB     109      POPC     H16S     HAL2     0.900000E-01   1.00800           0
     14546 MEMB     109      POPC     C217     CTL2    -0.180000       12.0110           0
     14547 MEMB     109      POPC     H17R     HAL2     0.900000E-01   1.00800           0
     14548 MEMB     109      POPC     H17S     HAL2     0.900000E-01   1.00800           0
     14549 MEMB     109      POPC     C218     CTL3    -0.270000       12.0110           0
     14550 MEMB     109      POPC     H18R     HAL3     0.900000E-01   1.00800           0
     14551 MEMB     109      POPC     H18S     HAL3     0.900000E-01   1.00800           0
     14552 MEMB     109      POPC     H18T     HAL3     0.900000E-01   1.00800           0
     14553 MEMB     109      POPC     C33      CTL2    -0.180000       12.0110           0
     14554 MEMB     109      POPC     H3X      HAL2     0.900000E-01   1.00800           0
     14555 MEMB     109      POPC     H3Y      HAL2     0.900000E-01   1.00800           0
     14556 MEMB     109      POPC     C34      CTL2    -0.180000       12.0110           0
     14557 MEMB     109      POPC     H4X      HAL2     0.900000E-01   1.00800           0
     14558 MEMB     109      POPC     H4Y      HAL2     0.900000E-01   1.00800           0
     14559 MEMB     109      POPC     C35      CTL2    -0.180000       12.0110           0
     14560 MEMB     109      POPC     H5X      HAL2     0.900000E-01   1.00800           0
     14561 MEMB     109      POPC     H5Y      HAL2     0.900000E-01   1.00800           0
     14562 MEMB     109      POPC     C36      CTL2    -0.180000       12.0110           0
     14563 MEMB     109      POPC     H6X      HAL2     0.900000E-01   1.00800           0
     14564 MEMB     109      POPC     H6Y      HAL2     0.900000E-01   1.00800           0
     14565 MEMB     109      POPC     C37      CTL2    -0.180000       12.0110           0
     14566 MEMB     109      POPC     H7X      HAL2     0.900000E-01   1.00800           0
     14567 MEMB     109      POPC     H7Y      HAL2     0.900000E-01   1.00800           0
     14568 MEMB     109      POPC     C38      CTL2    -0.180000       12.0110           0
     14569 MEMB     109      POPC     H8X      HAL2     0.900000E-01   1.00800           0
     14570 MEMB     109      POPC     H8Y      HAL2     0.900000E-01   1.00800           0
     14571 MEMB     109      POPC     C39      CTL2    -0.180000       12.0110           0
     14572 MEMB     109      POPC     H9X      HAL2     0.900000E-01   1.00800           0
     14573 MEMB     109      POPC     H9Y      HAL2     0.900000E-01   1.00800           0
     14574 MEMB     109      POPC     C310     CTL2    -0.180000       12.0110           0
     14575 MEMB     109      POPC     H10X     HAL2     0.900000E-01   1.00800           0
     14576 MEMB     109      POPC     H10Y     HAL2     0.900000E-01   1.00800           0
     14577 MEMB     109      POPC     C311     CTL2    -0.180000       12.0110           0
     14578 MEMB     109      POPC     H11X     HAL2     0.900000E-01   1.00800           0
     14579 MEMB     109      POPC     H11Y     HAL2     0.900000E-01   1.00800           0
     14580 MEMB     109      POPC     C312     CTL2    -0.180000       12.0110           0
     14581 MEMB     109      POPC     H12X     HAL2     0.900000E-01   1.00800           0
     14582 MEMB     109      POPC     H12Y     HAL2     0.900000E-01   1.00800           0
     14583 MEMB     109      POPC     C313     CTL2    -0.180000       12.0110           0
     14584 MEMB     109      POPC     H13X     HAL2     0.900000E-01   1.00800           0
     14585 MEMB     109      POPC     H13Y     HAL2     0.900000E-01   1.00800           0
     14586 MEMB     109      POPC     C314     CTL2    -0.180000       12.0110           0
     14587 MEMB     109      POPC     H14X     HAL2     0.900000E-01   1.00800           0
     14588 MEMB     109      POPC     H14Y     HAL2     0.900000E-01   1.00800           0
     14589 MEMB     109      POPC     C315     CTL2    -0.180000       12.0110           0
     14590 MEMB     109      POPC     H15X     HAL2     0.900000E-01   1.00800           0
     14591 MEMB     109      POPC     H15Y     HAL2     0.900000E-01   1.00800           0
     14592 MEMB     109      POPC     C316     CTL3    -0.270000       12.0110           0
     14593 MEMB     109      POPC     H16X     HAL3     0.900000E-01   1.00800           0
     14594 MEMB     109      POPC     H16Y     HAL3     0.900000E-01   1.00800           0
     14595 MEMB     109      POPC     H16Z     HAL3     0.900000E-01   1.00800           0
     14596 MEMB     110      POPC     N        NTL     -0.600000       14.0070           0
     14597 MEMB     110      POPC     C12      CTL2    -0.100000       12.0110           0
     14598 MEMB     110      POPC     H12A     HL       0.250000       1.00800           0
     14599 MEMB     110      POPC     H12B     HL       0.250000       1.00800           0
     14600 MEMB     110      POPC     C13      CTL5    -0.350000       12.0110           0
     14601 MEMB     110      POPC     H13A     HL       0.250000       1.00800           0
     14602 MEMB     110      POPC     H13B     HL       0.250000       1.00800           0
     14603 MEMB     110      POPC     H13C     HL       0.250000       1.00800           0
     14604 MEMB     110      POPC     C14      CTL5    -0.350000       12.0110           0
     14605 MEMB     110      POPC     H14A     HL       0.250000       1.00800           0
     14606 MEMB     110      POPC     H14B     HL       0.250000       1.00800           0
     14607 MEMB     110      POPC     H14C     HL       0.250000       1.00800           0
     14608 MEMB     110      POPC     C15      CTL5    -0.350000       12.0110           0
     14609 MEMB     110      POPC     H15A     HL       0.250000       1.00800           0
     14610 MEMB     110      POPC     H15B     HL       0.250000       1.00800           0
     14611 MEMB     110      POPC     H15C     HL       0.250000       1.00800           0
     14612 MEMB     110      POPC     C11      CTL2    -0.800000E-01   12.0110           0
     14613 MEMB     110      POPC     H11A     HAL2     0.900000E-01   1.00800           0
     14614 MEMB     110      POPC     H11B     HAL2     0.900000E-01   1.00800           0
     14615 MEMB     110      POPC     P        PL       1.500000       30.9740           0
     14616 MEMB     110      POPC     O13      O2L     -0.780000       15.9994           0
     14617 MEMB     110      POPC     O14      O2L     -0.780000       15.9994           0
     14618 MEMB     110      POPC     O12      OSLP    -0.570000       15.9994           0
     14619 MEMB     110      POPC     O11      OSLP    -0.570000       15.9994           0
     14620 MEMB     110      POPC     C1       CTL2    -0.800000E-01   12.0110           0
     14621 MEMB     110      POPC     HA       HAL2     0.900000E-01   1.00800           0
     14622 MEMB     110      POPC     HB       HAL2     0.900000E-01   1.00800           0
     14623 MEMB     110      POPC     C2       CTL1     0.170000       12.0110           0
     14624 MEMB     110      POPC     HS       HAL1     0.900000E-01   1.00800           0
     14625 MEMB     110      POPC     O21      OSL     -0.490000       15.9994           0
     14626 MEMB     110      POPC     C21      CL       0.900000       12.0110           0
     14627 MEMB     110      POPC     O22      OBL     -0.630000       15.9994           0
     14628 MEMB     110      POPC     C22      CTL2    -0.220000       12.0110           0
     14629 MEMB     110      POPC     H2R      HAL2     0.900000E-01   1.00800           0
     14630 MEMB     110      POPC     H2S      HAL2     0.900000E-01   1.00800           0
     14631 MEMB     110      POPC     C3       CTL2     0.800000E-01   12.0110           0
     14632 MEMB     110      POPC     HX       HAL2     0.900000E-01   1.00800           0
     14633 MEMB     110      POPC     HY       HAL2     0.900000E-01   1.00800           0
     14634 MEMB     110      POPC     O31      OSL     -0.490000       15.9994           0
     14635 MEMB     110      POPC     C31      CL       0.900000       12.0110           0
     14636 MEMB     110      POPC     O32      OBL     -0.630000       15.9994           0
     14637 MEMB     110      POPC     C32      CTL2    -0.220000       12.0110           0
     14638 MEMB     110      POPC     H2X      HAL2     0.900000E-01   1.00800           0
     14639 MEMB     110      POPC     H2Y      HAL2     0.900000E-01   1.00800           0
     14640 MEMB     110      POPC     C23      CTL2    -0.180000       12.0110           0
     14641 MEMB     110      POPC     H3R      HAL2     0.900000E-01   1.00800           0
     14642 MEMB     110      POPC     H3S      HAL2     0.900000E-01   1.00800           0
     14643 MEMB     110      POPC     C24      CTL2    -0.180000       12.0110           0
     14644 MEMB     110      POPC     H4R      HAL2     0.900000E-01   1.00800           0
     14645 MEMB     110      POPC     H4S      HAL2     0.900000E-01   1.00800           0
     14646 MEMB     110      POPC     C25      CTL2    -0.180000       12.0110           0
     14647 MEMB     110      POPC     H5R      HAL2     0.900000E-01   1.00800           0
     14648 MEMB     110      POPC     H5S      HAL2     0.900000E-01   1.00800           0
     14649 MEMB     110      POPC     C26      CTL2    -0.180000       12.0110           0
     14650 MEMB     110      POPC     H6R      HAL2     0.900000E-01   1.00800           0
     14651 MEMB     110      POPC     H6S      HAL2     0.900000E-01   1.00800           0
     14652 MEMB     110      POPC     C27      CTL2    -0.180000       12.0110           0
     14653 MEMB     110      POPC     H7R      HAL2     0.900000E-01   1.00800           0
     14654 MEMB     110      POPC     H7S      HAL2     0.900000E-01   1.00800           0
     14655 MEMB     110      POPC     C28      CTL2    -0.180000       12.0110           0
     14656 MEMB     110      POPC     H8R      HAL2     0.900000E-01   1.00800           0
     14657 MEMB     110      POPC     H8S      HAL2     0.900000E-01   1.00800           0
     14658 MEMB     110      POPC     C29      CEL1    -0.150000       12.0110           0
     14659 MEMB     110      POPC     H91      HEL1     0.150000       1.00800           0
     14660 MEMB     110      POPC     C210     CEL1    -0.150000       12.0110           0
     14661 MEMB     110      POPC     H101     HEL1     0.150000       1.00800           0
     14662 MEMB     110      POPC     C211     CTL2    -0.180000       12.0110           0
     14663 MEMB     110      POPC     H11R     HAL2     0.900000E-01   1.00800           0
     14664 MEMB     110      POPC     H11S     HAL2     0.900000E-01   1.00800           0
     14665 MEMB     110      POPC     C212     CTL2    -0.180000       12.0110           0
     14666 MEMB     110      POPC     H12R     HAL2     0.900000E-01   1.00800           0
     14667 MEMB     110      POPC     H12S     HAL2     0.900000E-01   1.00800           0
     14668 MEMB     110      POPC     C213     CTL2    -0.180000       12.0110           0
     14669 MEMB     110      POPC     H13R     HAL2     0.900000E-01   1.00800           0
     14670 MEMB     110      POPC     H13S     HAL2     0.900000E-01   1.00800           0
     14671 MEMB     110      POPC     C214     CTL2    -0.180000       12.0110           0
     14672 MEMB     110      POPC     H14R     HAL2     0.900000E-01   1.00800           0
     14673 MEMB     110      POPC     H14S     HAL2     0.900000E-01   1.00800           0
     14674 MEMB     110      POPC     C215     CTL2    -0.180000       12.0110           0
     14675 MEMB     110      POPC     H15R     HAL2     0.900000E-01   1.00800           0
     14676 MEMB     110      POPC     H15S     HAL2     0.900000E-01   1.00800           0
     14677 MEMB     110      POPC     C216     CTL2    -0.180000       12.0110           0
     14678 MEMB     110      POPC     H16R     HAL2     0.900000E-01   1.00800           0
     14679 MEMB     110      POPC     H16S     HAL2     0.900000E-01   1.00800           0
     14680 MEMB     110      POPC     C217     CTL2    -0.180000       12.0110           0
     14681 MEMB     110      POPC     H17R     HAL2     0.900000E-01   1.00800           0
     14682 MEMB     110      POPC     H17S     HAL2     0.900000E-01   1.00800           0
     14683 MEMB     110      POPC     C218     CTL3    -0.270000       12.0110           0
     14684 MEMB     110      POPC     H18R     HAL3     0.900000E-01   1.00800           0
     14685 MEMB     110      POPC     H18S     HAL3     0.900000E-01   1.00800           0
     14686 MEMB     110      POPC     H18T     HAL3     0.900000E-01   1.00800           0
     14687 MEMB     110      POPC     C33      CTL2    -0.180000       12.0110           0
     14688 MEMB     110      POPC     H3X      HAL2     0.900000E-01   1.00800           0
     14689 MEMB     110      POPC     H3Y      HAL2     0.900000E-01   1.00800           0
     14690 MEMB     110      POPC     C34      CTL2    -0.180000       12.0110           0
     14691 MEMB     110      POPC     H4X      HAL2     0.900000E-01   1.00800           0
     14692 MEMB     110      POPC     H4Y      HAL2     0.900000E-01   1.00800           0
     14693 MEMB     110      POPC     C35      CTL2    -0.180000       12.0110           0
     14694 MEMB     110      POPC     H5X      HAL2     0.900000E-01   1.00800           0
     14695 MEMB     110      POPC     H5Y      HAL2     0.900000E-01   1.00800           0
     14696 MEMB     110      POPC     C36      CTL2    -0.180000       12.0110           0
     14697 MEMB     110      POPC     H6X      HAL2     0.900000E-01   1.00800           0
     14698 MEMB     110      POPC     H6Y      HAL2     0.900000E-01   1.00800           0
     14699 MEMB     110      POPC     C37      CTL2    -0.180000       12.0110           0
     14700 MEMB     110      POPC     H7X      HAL2     0.900000E-01   1.00800           0
     14701 MEMB     110      POPC     H7Y      HAL2     0.900000E-01   1.00800           0
     14702 MEMB     110      POPC     C38      CTL2    -0.180000       12.0110           0
     14703 MEMB     110      POPC     H8X      HAL2     0.900000E-01   1.00800           0
     14704 MEMB     110      POPC     H8Y      HAL2     0.900000E-01   1.00800           0
     14705 MEMB     110      POPC     C39      CTL2    -0.180000       12.0110           0
     14706 MEMB     110      POPC     H9X      HAL2     0.900000E-01   1.00800           0
     14707 MEMB     110      POPC     H9Y      HAL2     0.900000E-01   1.00800           0
     14708 MEMB     110      POPC     C310     CTL2    -0.180000       12.0110           0
     14709 MEMB     110      POPC     H10X     HAL2     0.900000E-01   1.00800           0
     14710 MEMB     110      POPC     H10Y     HAL2     0.900000E-01   1.00800           0
     14711 MEMB     110      POPC     C311     CTL2    -0.180000       12.0110           0
     14712 MEMB     110      POPC     H11X     HAL2     0.900000E-01   1.00800           0
     14713 MEMB     110      POPC     H11Y     HAL2     0.900000E-01   1.00800           0
     14714 MEMB     110      POPC     C312     CTL2    -0.180000       12.0110           0
     14715 MEMB     110      POPC     H12X     HAL2     0.900000E-01   1.00800           0
     14716 MEMB     110      POPC     H12Y     HAL2     0.900000E-01   1.00800           0
     14717 MEMB     110      POPC     C313     CTL2    -0.180000       12.0110           0
     14718 MEMB     110      POPC     H13X     HAL2     0.900000E-01   1.00800           0
     14719 MEMB     110      POPC     H13Y     HAL2     0.900000E-01   1.00800           0
     14720 MEMB     110      POPC     C314     CTL2    -0.180000       12.0110           0
     14721 MEMB     110      POPC     H14X     HAL2     0.900000E-01   1.00800           0
     14722 MEMB     110      POPC     H14Y     HAL2     0.900000E-01   1.00800           0
     14723 MEMB     110      POPC     C315     CTL2    -0.180000       12.0110           0
     14724 MEMB     110      POPC     H15X     HAL2     0.900000E-01   1.00800           0
     14725 MEMB     110      POPC     H15Y     HAL2     0.900000E-01   1.00800           0
     14726 MEMB     110      POPC     C316     CTL3    -0.270000       12.0110           0
     14727 MEMB     110      POPC     H16X     HAL3     0.900000E-01   1.00800           0
     14728 MEMB     110      POPC     H16Y     HAL3     0.900000E-01   1.00800           0
     14729 MEMB     110      POPC     H16Z     HAL3     0.900000E-01   1.00800           0
     14730 MEMB     111      POPC     N        NTL     -0.600000       14.0070           0
     14731 MEMB     111      POPC     C12      CTL2    -0.100000       12.0110           0
     14732 MEMB     111      POPC     H12A     HL       0.250000       1.00800           0
     14733 MEMB     111      POPC     H12B     HL       0.250000       1.00800           0
     14734 MEMB     111      POPC     C13      CTL5    -0.350000       12.0110           0
     14735 MEMB     111      POPC     H13A     HL       0.250000       1.00800           0
     14736 MEMB     111      POPC     H13B     HL       0.250000       1.00800           0
     14737 MEMB     111      POPC     H13C     HL       0.250000       1.00800           0
     14738 MEMB     111      POPC     C14      CTL5    -0.350000       12.0110           0
     14739 MEMB     111      POPC     H14A     HL       0.250000       1.00800           0
     14740 MEMB     111      POPC     H14B     HL       0.250000       1.00800           0
     14741 MEMB     111      POPC     H14C     HL       0.250000       1.00800           0
     14742 MEMB     111      POPC     C15      CTL5    -0.350000       12.0110           0
     14743 MEMB     111      POPC     H15A     HL       0.250000       1.00800           0
     14744 MEMB     111      POPC     H15B     HL       0.250000       1.00800           0
     14745 MEMB     111      POPC     H15C     HL       0.250000       1.00800           0
     14746 MEMB     111      POPC     C11      CTL2    -0.800000E-01   12.0110           0
     14747 MEMB     111      POPC     H11A     HAL2     0.900000E-01   1.00800           0
     14748 MEMB     111      POPC     H11B     HAL2     0.900000E-01   1.00800           0
     14749 MEMB     111      POPC     P        PL       1.500000       30.9740           0
     14750 MEMB     111      POPC     O13      O2L     -0.780000       15.9994           0
     14751 MEMB     111      POPC     O14      O2L     -0.780000       15.9994           0
     14752 MEMB     111      POPC     O12      OSLP    -0.570000       15.9994           0
     14753 MEMB     111      POPC     O11      OSLP    -0.570000       15.9994           0
     14754 MEMB     111      POPC     C1       CTL2    -0.800000E-01   12.0110           0
     14755 MEMB     111      POPC     HA       HAL2     0.900000E-01   1.00800           0
     14756 MEMB     111      POPC     HB       HAL2     0.900000E-01   1.00800           0
     14757 MEMB     111      POPC     C2       CTL1     0.170000       12.0110           0
     14758 MEMB     111      POPC     HS       HAL1     0.900000E-01   1.00800           0
     14759 MEMB     111      POPC     O21      OSL     -0.490000       15.9994           0
     14760 MEMB     111      POPC     C21      CL       0.900000       12.0110           0
     14761 MEMB     111      POPC     O22      OBL     -0.630000       15.9994           0
     14762 MEMB     111      POPC     C22      CTL2    -0.220000       12.0110           0
     14763 MEMB     111      POPC     H2R      HAL2     0.900000E-01   1.00800           0
     14764 MEMB     111      POPC     H2S      HAL2     0.900000E-01   1.00800           0
     14765 MEMB     111      POPC     C3       CTL2     0.800000E-01   12.0110           0
     14766 MEMB     111      POPC     HX       HAL2     0.900000E-01   1.00800           0
     14767 MEMB     111      POPC     HY       HAL2     0.900000E-01   1.00800           0
     14768 MEMB     111      POPC     O31      OSL     -0.490000       15.9994           0
     14769 MEMB     111      POPC     C31      CL       0.900000       12.0110           0
     14770 MEMB     111      POPC     O32      OBL     -0.630000       15.9994           0
     14771 MEMB     111      POPC     C32      CTL2    -0.220000       12.0110           0
     14772 MEMB     111      POPC     H2X      HAL2     0.900000E-01   1.00800           0
     14773 MEMB     111      POPC     H2Y      HAL2     0.900000E-01   1.00800           0
     14774 MEMB     111      POPC     C23      CTL2    -0.180000       12.0110           0
     14775 MEMB     111      POPC     H3R      HAL2     0.900000E-01   1.00800           0
     14776 MEMB     111      POPC     H3S      HAL2     0.900000E-01   1.00800           0
     14777 MEMB     111      POPC     C24      CTL2    -0.180000       12.0110           0
     14778 MEMB     111      POPC     H4R      HAL2     0.900000E-01   1.00800           0
     14779 MEMB     111      POPC     H4S      HAL2     0.900000E-01   1.00800           0
     14780 MEMB     111      POPC     C25      CTL2    -0.180000       12.0110           0
     14781 MEMB     111      POPC     H5R      HAL2     0.900000E-01   1.00800           0
     14782 MEMB     111      POPC     H5S      HAL2     0.900000E-01   1.00800           0
     14783 MEMB     111      POPC     C26      CTL2    -0.180000       12.0110           0
     14784 MEMB     111      POPC     H6R      HAL2     0.900000E-01   1.00800           0
     14785 MEMB     111      POPC     H6S      HAL2     0.900000E-01   1.00800           0
     14786 MEMB     111      POPC     C27      CTL2    -0.180000       12.0110           0
     14787 MEMB     111      POPC     H7R      HAL2     0.900000E-01   1.00800           0
     14788 MEMB     111      POPC     H7S      HAL2     0.900000E-01   1.00800           0
     14789 MEMB     111      POPC     C28      CTL2    -0.180000       12.0110           0
     14790 MEMB     111      POPC     H8R      HAL2     0.900000E-01   1.00800           0
     14791 MEMB     111      POPC     H8S      HAL2     0.900000E-01   1.00800           0
     14792 MEMB     111      POPC     C29      CEL1    -0.150000       12.0110           0
     14793 MEMB     111      POPC     H91      HEL1     0.150000       1.00800           0
     14794 MEMB     111      POPC     C210     CEL1    -0.150000       12.0110           0
     14795 MEMB     111      POPC     H101     HEL1     0.150000       1.00800           0
     14796 MEMB     111      POPC     C211     CTL2    -0.180000       12.0110           0
     14797 MEMB     111      POPC     H11R     HAL2     0.900000E-01   1.00800           0
     14798 MEMB     111      POPC     H11S     HAL2     0.900000E-01   1.00800           0
     14799 MEMB     111      POPC     C212     CTL2    -0.180000       12.0110           0
     14800 MEMB     111      POPC     H12R     HAL2     0.900000E-01   1.00800           0
     14801 MEMB     111      POPC     H12S     HAL2     0.900000E-01   1.00800           0
     14802 MEMB     111      POPC     C213     CTL2    -0.180000       12.0110           0
     14803 MEMB     111      POPC     H13R     HAL2     0.900000E-01   1.00800           0
     14804 MEMB     111      POPC     H13S     HAL2     0.900000E-01   1.00800           0
     14805 MEMB     111      POPC     C214     CTL2    -0.180000       12.0110           0
     14806 MEMB     111      POPC     H14R     HAL2     0.900000E-01   1.00800           0
     14807 MEMB     111      POPC     H14S     HAL2     0.900000E-01   1.00800           0
     14808 MEMB     111      POPC     C215     CTL2    -0.180000       12.0110           0
     14809 MEMB     111      POPC     H15R     HAL2     0.900000E-01   1.00800           0
     14810 MEMB     111      POPC     H15S     HAL2     0.900000E-01   1.00800           0
     14811 MEMB     111      POPC     C216     CTL2    -0.180000       12.0110           0
     14812 MEMB     111      POPC     H16R     HAL2     0.900000E-01   1.00800           0
     14813 MEMB     111      POPC     H16S     HAL2     0.900000E-01   1.00800           0
     14814 MEMB     111      POPC     C217     CTL2    -0.180000       12.0110           0
     14815 MEMB     111      POPC     H17R     HAL2     0.900000E-01   1.00800           0
     14816 MEMB     111      POPC     H17S     HAL2     0.900000E-01   1.00800           0
     14817 MEMB     111      POPC     C218     CTL3    -0.270000       12.0110           0
     14818 MEMB     111      POPC     H18R     HAL3     0.900000E-01   1.00800           0
     14819 MEMB     111      POPC     H18S     HAL3     0.900000E-01   1.00800           0
     14820 MEMB     111      POPC     H18T     HAL3     0.900000E-01   1.00800           0
     14821 MEMB     111      POPC     C33      CTL2    -0.180000       12.0110           0
     14822 MEMB     111      POPC     H3X      HAL2     0.900000E-01   1.00800           0
     14823 MEMB     111      POPC     H3Y      HAL2     0.900000E-01   1.00800           0
     14824 MEMB     111      POPC     C34      CTL2    -0.180000       12.0110           0
     14825 MEMB     111      POPC     H4X      HAL2     0.900000E-01   1.00800           0
     14826 MEMB     111      POPC     H4Y      HAL2     0.900000E-01   1.00800           0
     14827 MEMB     111      POPC     C35      CTL2    -0.180000       12.0110           0
     14828 MEMB     111      POPC     H5X      HAL2     0.900000E-01   1.00800           0
     14829 MEMB     111      POPC     H5Y      HAL2     0.900000E-01   1.00800           0
     14830 MEMB     111      POPC     C36      CTL2    -0.180000       12.0110           0
     14831 MEMB     111      POPC     H6X      HAL2     0.900000E-01   1.00800           0
     14832 MEMB     111      POPC     H6Y      HAL2     0.900000E-01   1.00800           0
     14833 MEMB     111      POPC     C37      CTL2    -0.180000       12.0110           0
     14834 MEMB     111      POPC     H7X      HAL2     0.900000E-01   1.00800           0
     14835 MEMB     111      POPC     H7Y      HAL2     0.900000E-01   1.00800           0
     14836 MEMB     111      POPC     C38      CTL2    -0.180000       12.0110           0
     14837 MEMB     111      POPC     H8X      HAL2     0.900000E-01   1.00800           0
     14838 MEMB     111      POPC     H8Y      HAL2     0.900000E-01   1.00800           0
     14839 MEMB     111      POPC     C39      CTL2    -0.180000       12.0110           0
     14840 MEMB     111      POPC     H9X      HAL2     0.900000E-01   1.00800           0
     14841 MEMB     111      POPC     H9Y      HAL2     0.900000E-01   1.00800           0
     14842 MEMB     111      POPC     C310     CTL2    -0.180000       12.0110           0
     14843 MEMB     111      POPC     H10X     HAL2     0.900000E-01   1.00800           0
     14844 MEMB     111      POPC     H10Y     HAL2     0.900000E-01   1.00800           0
     14845 MEMB     111      POPC     C311     CTL2    -0.180000       12.0110           0
     14846 MEMB     111      POPC     H11X     HAL2     0.900000E-01   1.00800           0
     14847 MEMB     111      POPC     H11Y     HAL2     0.900000E-01   1.00800           0
     14848 MEMB     111      POPC     C312     CTL2    -0.180000       12.0110           0
     14849 MEMB     111      POPC     H12X     HAL2     0.900000E-01   1.00800           0
     14850 MEMB     111      POPC     H12Y     HAL2     0.900000E-01   1.00800           0
     14851 MEMB     111      POPC     C313     CTL2    -0.180000       12.0110           0
     14852 MEMB     111      POPC     H13X     HAL2     0.900000E-01   1.00800           0
     14853 MEMB     111      POPC     H13Y     HAL2     0.900000E-01   1.00800           0
     14854 MEMB     111      POPC     C314     CTL2    -0.180000       12.0110           0
     14855 MEMB     111      POPC     H14X     HAL2     0.900000E-01   1.00800           0
     14856 MEMB     111      POPC     H14Y     HAL2     0.900000E-01   1.00800           0
     14857 MEMB     111      POPC     C315     CTL2    -0.180000       12.0110           0
     14858 MEMB     111      POPC     H15X     HAL2     0.900000E-01   1.00800           0
     14859 MEMB     111      POPC     H15Y     HAL2     0.900000E-01   1.00800           0
     14860 MEMB     111      POPC     C316     CTL3    -0.270000       12.0110           0
     14861 MEMB     111      POPC     H16X     HAL3     0.900000E-01   1.00800           0
     14862 MEMB     111      POPC     H16Y     HAL3     0.900000E-01   1.00800           0
     14863 MEMB     111      POPC     H16Z     HAL3     0.900000E-01   1.00800           0
     14864 MEMB     112      POPS     N        NH3L    -0.300000       14.0070           0
     14865 MEMB     112      POPS     HN1      HCL      0.330000       1.00800           0
     14866 MEMB     112      POPS     HN2      HCL      0.330000       1.00800           0
     14867 MEMB     112      POPS     HN3      HCL      0.330000       1.00800           0
     14868 MEMB     112      POPS     C12      CTL1     0.210000       12.0110           0
     14869 MEMB     112      POPS     H12A     HBL      0.100000       1.00800           0
     14870 MEMB     112      POPS     C13      CCL      0.340000       12.0110           0
     14871 MEMB     112      POPS     O13A     OCL     -0.670000       15.9994           0
     14872 MEMB     112      POPS     O13B     OCL     -0.670000       15.9994           0
     14873 MEMB     112      POPS     C11      CTL2    -0.800000E-01   12.0110           0
     14874 MEMB     112      POPS     H11A     HAL2     0.900000E-01   1.00800           0
     14875 MEMB     112      POPS     H11B     HAL2     0.900000E-01   1.00800           0
     14876 MEMB     112      POPS     P        PL       1.500000       30.9740           0
     14877 MEMB     112      POPS     O13      O2L     -0.780000       15.9994           0
     14878 MEMB     112      POPS     O14      O2L     -0.780000       15.9994           0
     14879 MEMB     112      POPS     O12      OSLP    -0.570000       15.9994           0
     14880 MEMB     112      POPS     O11      OSLP    -0.570000       15.9994           0
     14881 MEMB     112      POPS     C1       CTL2    -0.800000E-01   12.0110           0
     14882 MEMB     112      POPS     HA       HAL2     0.900000E-01   1.00800           0
     14883 MEMB     112      POPS     HB       HAL2     0.900000E-01   1.00800           0
     14884 MEMB     112      POPS     C2       CTL1     0.170000       12.0110           0
     14885 MEMB     112      POPS     HS       HAL1     0.900000E-01   1.00800           0
     14886 MEMB     112      POPS     O21      OSL     -0.490000       15.9994           0
     14887 MEMB     112      POPS     C21      CL       0.900000       12.0110           0
     14888 MEMB     112      POPS     O22      OBL     -0.630000       15.9994           0
     14889 MEMB     112      POPS     C22      CTL2    -0.220000       12.0110           0
     14890 MEMB     112      POPS     H2R      HAL2     0.900000E-01   1.00800           0
     14891 MEMB     112      POPS     H2S      HAL2     0.900000E-01   1.00800           0
     14892 MEMB     112      POPS     C3       CTL2     0.800000E-01   12.0110           0
     14893 MEMB     112      POPS     HX       HAL2     0.900000E-01   1.00800           0
     14894 MEMB     112      POPS     HY       HAL2     0.900000E-01   1.00800           0
     14895 MEMB     112      POPS     O31      OSL     -0.490000       15.9994           0
     14896 MEMB     112      POPS     C31      CL       0.900000       12.0110           0
     14897 MEMB     112      POPS     O32      OBL     -0.630000       15.9994           0
     14898 MEMB     112      POPS     C32      CTL2    -0.220000       12.0110           0
     14899 MEMB     112      POPS     H2X      HAL2     0.900000E-01   1.00800           0
     14900 MEMB     112      POPS     H2Y      HAL2     0.900000E-01   1.00800           0
     14901 MEMB     112      POPS     C23      CTL2    -0.180000       12.0110           0
     14902 MEMB     112      POPS     H3R      HAL2     0.900000E-01   1.00800           0
     14903 MEMB     112      POPS     H3S      HAL2     0.900000E-01   1.00800           0
     14904 MEMB     112      POPS     C24      CTL2    -0.180000       12.0110           0
     14905 MEMB     112      POPS     H4R      HAL2     0.900000E-01   1.00800           0
     14906 MEMB     112      POPS     H4S      HAL2     0.900000E-01   1.00800           0
     14907 MEMB     112      POPS     C25      CTL2    -0.180000       12.0110           0
     14908 MEMB     112      POPS     H5R      HAL2     0.900000E-01   1.00800           0
     14909 MEMB     112      POPS     H5S      HAL2     0.900000E-01   1.00800           0
     14910 MEMB     112      POPS     C26      CTL2    -0.180000       12.0110           0
     14911 MEMB     112      POPS     H6R      HAL2     0.900000E-01   1.00800           0
     14912 MEMB     112      POPS     H6S      HAL2     0.900000E-01   1.00800           0
     14913 MEMB     112      POPS     C27      CTL2    -0.180000       12.0110           0
     14914 MEMB     112      POPS     H7R      HAL2     0.900000E-01   1.00800           0
     14915 MEMB     112      POPS     H7S      HAL2     0.900000E-01   1.00800           0
     14916 MEMB     112      POPS     C28      CTL2    -0.180000       12.0110           0
     14917 MEMB     112      POPS     H8R      HAL2     0.900000E-01   1.00800           0
     14918 MEMB     112      POPS     H8S      HAL2     0.900000E-01   1.00800           0
     14919 MEMB     112      POPS     C29      CEL1    -0.150000       12.0110           0
     14920 MEMB     112      POPS     H91      HEL1     0.150000       1.00800           0
     14921 MEMB     112      POPS     C210     CEL1    -0.150000       12.0110           0
     14922 MEMB     112      POPS     H101     HEL1     0.150000       1.00800           0
     14923 MEMB     112      POPS     C211     CTL2    -0.180000       12.0110           0
     14924 MEMB     112      POPS     H11R     HAL2     0.900000E-01   1.00800           0
     14925 MEMB     112      POPS     H11S     HAL2     0.900000E-01   1.00800           0
     14926 MEMB     112      POPS     C212     CTL2    -0.180000       12.0110           0
     14927 MEMB     112      POPS     H12R     HAL2     0.900000E-01   1.00800           0
     14928 MEMB     112      POPS     H12S     HAL2     0.900000E-01   1.00800           0
     14929 MEMB     112      POPS     C213     CTL2    -0.180000       12.0110           0
     14930 MEMB     112      POPS     H13R     HAL2     0.900000E-01   1.00800           0
     14931 MEMB     112      POPS     H13S     HAL2     0.900000E-01   1.00800           0
     14932 MEMB     112      POPS     C214     CTL2    -0.180000       12.0110           0
     14933 MEMB     112      POPS     H14R     HAL2     0.900000E-01   1.00800           0
     14934 MEMB     112      POPS     H14S     HAL2     0.900000E-01   1.00800           0
     14935 MEMB     112      POPS     C215     CTL2    -0.180000       12.0110           0
     14936 MEMB     112      POPS     H15R     HAL2     0.900000E-01   1.00800           0
     14937 MEMB     112      POPS     H15S     HAL2     0.900000E-01   1.00800           0
     14938 MEMB     112      POPS     C216     CTL2    -0.180000       12.0110           0
     14939 MEMB     112      POPS     H16R     HAL2     0.900000E-01   1.00800           0
     14940 MEMB     112      POPS     H16S     HAL2     0.900000E-01   1.00800           0
     14941 MEMB     112      POPS     C217     CTL2    -0.180000       12.0110           0
     14942 MEMB     112      POPS     H17R     HAL2     0.900000E-01   1.00800           0
     14943 MEMB     112      POPS     H17S     HAL2     0.900000E-01   1.00800           0
     14944 MEMB     112      POPS     C218     CTL3    -0.270000       12.0110           0
     14945 MEMB     112      POPS     H18R     HAL3     0.900000E-01   1.00800           0
     14946 MEMB     112      POPS     H18S     HAL3     0.900000E-01   1.00800           0
     14947 MEMB     112      POPS     H18T     HAL3     0.900000E-01   1.00800           0
     14948 MEMB     112      POPS     C33      CTL2    -0.180000       12.0110           0
     14949 MEMB     112      POPS     H3X      HAL2     0.900000E-01   1.00800           0
     14950 MEMB     112      POPS     H3Y      HAL2     0.900000E-01   1.00800           0
     14951 MEMB     112      POPS     C34      CTL2    -0.180000       12.0110           0
     14952 MEMB     112      POPS     H4X      HAL2     0.900000E-01   1.00800           0
     14953 MEMB     112      POPS     H4Y      HAL2     0.900000E-01   1.00800           0
     14954 MEMB     112      POPS     C35      CTL2    -0.180000       12.0110           0
     14955 MEMB     112      POPS     H5X      HAL2     0.900000E-01   1.00800           0
     14956 MEMB     112      POPS     H5Y      HAL2     0.900000E-01   1.00800           0
     14957 MEMB     112      POPS     C36      CTL2    -0.180000       12.0110           0
     14958 MEMB     112      POPS     H6X      HAL2     0.900000E-01   1.00800           0
     14959 MEMB     112      POPS     H6Y      HAL2     0.900000E-01   1.00800           0
     14960 MEMB     112      POPS     C37      CTL2    -0.180000       12.0110           0
     14961 MEMB     112      POPS     H7X      HAL2     0.900000E-01   1.00800           0
     14962 MEMB     112      POPS     H7Y      HAL2     0.900000E-01   1.00800           0
     14963 MEMB     112      POPS     C38      CTL2    -0.180000       12.0110           0
     14964 MEMB     112      POPS     H8X      HAL2     0.900000E-01   1.00800           0
     14965 MEMB     112      POPS     H8Y      HAL2     0.900000E-01   1.00800           0
     14966 MEMB     112      POPS     C39      CTL2    -0.180000       12.0110           0
     14967 MEMB     112      POPS     H9X      HAL2     0.900000E-01   1.00800           0
     14968 MEMB     112      POPS     H9Y      HAL2     0.900000E-01   1.00800           0
     14969 MEMB     112      POPS     C310     CTL2    -0.180000       12.0110           0
     14970 MEMB     112      POPS     H10X     HAL2     0.900000E-01   1.00800           0
     14971 MEMB     112      POPS     H10Y     HAL2     0.900000E-01   1.00800           0
     14972 MEMB     112      POPS     C311     CTL2    -0.180000       12.0110           0
     14973 MEMB     112      POPS     H11X     HAL2     0.900000E-01   1.00800           0
     14974 MEMB     112      POPS     H11Y     HAL2     0.900000E-01   1.00800           0
     14975 MEMB     112      POPS     C312     CTL2    -0.180000       12.0110           0
     14976 MEMB     112      POPS     H12X     HAL2     0.900000E-01   1.00800           0
     14977 MEMB     112      POPS     H12Y     HAL2     0.900000E-01   1.00800           0
     14978 MEMB     112      POPS     C313     CTL2    -0.180000       12.0110           0
     14979 MEMB     112      POPS     H13X     HAL2     0.900000E-01   1.00800           0
     14980 MEMB     112      POPS     H13Y     HAL2     0.900000E-01   1.00800           0
     14981 MEMB     112      POPS     C314     CTL2    -0.180000       12.0110           0
     14982 MEMB     112      POPS     H14X     HAL2     0.900000E-01   1.00800           0
     14983 MEMB     112      POPS     H14Y     HAL2     0.900000E-01   1.00800           0
     14984 MEMB     112      POPS     C315     CTL2    -0.180000       12.0110           0
     14985 MEMB     112      POPS     H15X     HAL2     0.900000E-01   1.00800           0
     14986 MEMB     112      POPS     H15Y     HAL2     0.900000E-01   1.00800           0
     14987 MEMB     112      POPS     C316     CTL3    -0.270000       12.0110           0
     14988 MEMB     112      POPS     H16X     HAL3     0.900000E-01   1.00800           0
     14989 MEMB     112      POPS     H16Y     HAL3     0.900000E-01   1.00800           0
     14990 MEMB     112      POPS     H16Z     HAL3     0.900000E-01   1.00800           0
     14991 MEMB     113      POPC     N        NTL     -0.600000       14.0070           0
     14992 MEMB     113      POPC     C12      CTL2    -0.100000       12.0110           0
     14993 MEMB     113      POPC     H12A     HL       0.250000       1.00800           0
     14994 MEMB     113      POPC     H12B     HL       0.250000       1.00800           0
     14995 MEMB     113      POPC     C13      CTL5    -0.350000       12.0110           0
     14996 MEMB     113      POPC     H13A     HL       0.250000       1.00800           0
     14997 MEMB     113      POPC     H13B     HL       0.250000       1.00800           0
     14998 MEMB     113      POPC     H13C     HL       0.250000       1.00800           0
     14999 MEMB     113      POPC     C14      CTL5    -0.350000       12.0110           0
     15000 MEMB     113      POPC     H14A     HL       0.250000       1.00800           0
     15001 MEMB     113      POPC     H14B     HL       0.250000       1.00800           0
     15002 MEMB     113      POPC     H14C     HL       0.250000       1.00800           0
     15003 MEMB     113      POPC     C15      CTL5    -0.350000       12.0110           0
     15004 MEMB     113      POPC     H15A     HL       0.250000       1.00800           0
     15005 MEMB     113      POPC     H15B     HL       0.250000       1.00800           0
     15006 MEMB     113      POPC     H15C     HL       0.250000       1.00800           0
     15007 MEMB     113      POPC     C11      CTL2    -0.800000E-01   12.0110           0
     15008 MEMB     113      POPC     H11A     HAL2     0.900000E-01   1.00800           0
     15009 MEMB     113      POPC     H11B     HAL2     0.900000E-01   1.00800           0
     15010 MEMB     113      POPC     P        PL       1.500000       30.9740           0
     15011 MEMB     113      POPC     O13      O2L     -0.780000       15.9994           0
     15012 MEMB     113      POPC     O14      O2L     -0.780000       15.9994           0
     15013 MEMB     113      POPC     O12      OSLP    -0.570000       15.9994           0
     15014 MEMB     113      POPC     O11      OSLP    -0.570000       15.9994           0
     15015 MEMB     113      POPC     C1       CTL2    -0.800000E-01   12.0110           0
     15016 MEMB     113      POPC     HA       HAL2     0.900000E-01   1.00800           0
     15017 MEMB     113      POPC     HB       HAL2     0.900000E-01   1.00800           0
     15018 MEMB     113      POPC     C2       CTL1     0.170000       12.0110           0
     15019 MEMB     113      POPC     HS       HAL1     0.900000E-01   1.00800           0
     15020 MEMB     113      POPC     O21      OSL     -0.490000       15.9994           0
     15021 MEMB     113      POPC     C21      CL       0.900000       12.0110           0
     15022 MEMB     113      POPC     O22      OBL     -0.630000       15.9994           0
     15023 MEMB     113      POPC     C22      CTL2    -0.220000       12.0110           0
     15024 MEMB     113      POPC     H2R      HAL2     0.900000E-01   1.00800           0
     15025 MEMB     113      POPC     H2S      HAL2     0.900000E-01   1.00800           0
     15026 MEMB     113      POPC     C3       CTL2     0.800000E-01   12.0110           0
     15027 MEMB     113      POPC     HX       HAL2     0.900000E-01   1.00800           0
     15028 MEMB     113      POPC     HY       HAL2     0.900000E-01   1.00800           0
     15029 MEMB     113      POPC     O31      OSL     -0.490000       15.9994           0
     15030 MEMB     113      POPC     C31      CL       0.900000       12.0110           0
     15031 MEMB     113      POPC     O32      OBL     -0.630000       15.9994           0
     15032 MEMB     113      POPC     C32      CTL2    -0.220000       12.0110           0
     15033 MEMB     113      POPC     H2X      HAL2     0.900000E-01   1.00800           0
     15034 MEMB     113      POPC     H2Y      HAL2     0.900000E-01   1.00800           0
     15035 MEMB     113      POPC     C23      CTL2    -0.180000       12.0110           0
     15036 MEMB     113      POPC     H3R      HAL2     0.900000E-01   1.00800           0
     15037 MEMB     113      POPC     H3S      HAL2     0.900000E-01   1.00800           0
     15038 MEMB     113      POPC     C24      CTL2    -0.180000       12.0110           0
     15039 MEMB     113      POPC     H4R      HAL2     0.900000E-01   1.00800           0
     15040 MEMB     113      POPC     H4S      HAL2     0.900000E-01   1.00800           0
     15041 MEMB     113      POPC     C25      CTL2    -0.180000       12.0110           0
     15042 MEMB     113      POPC     H5R      HAL2     0.900000E-01   1.00800           0
     15043 MEMB     113      POPC     H5S      HAL2     0.900000E-01   1.00800           0
     15044 MEMB     113      POPC     C26      CTL2    -0.180000       12.0110           0
     15045 MEMB     113      POPC     H6R      HAL2     0.900000E-01   1.00800           0
     15046 MEMB     113      POPC     H6S      HAL2     0.900000E-01   1.00800           0
     15047 MEMB     113      POPC     C27      CTL2    -0.180000       12.0110           0
     15048 MEMB     113      POPC     H7R      HAL2     0.900000E-01   1.00800           0
     15049 MEMB     113      POPC     H7S      HAL2     0.900000E-01   1.00800           0
     15050 MEMB     113      POPC     C28      CTL2    -0.180000       12.0110           0
     15051 MEMB     113      POPC     H8R      HAL2     0.900000E-01   1.00800           0
     15052 MEMB     113      POPC     H8S      HAL2     0.900000E-01   1.00800           0
     15053 MEMB     113      POPC     C29      CEL1    -0.150000       12.0110           0
     15054 MEMB     113      POPC     H91      HEL1     0.150000       1.00800           0
     15055 MEMB     113      POPC     C210     CEL1    -0.150000       12.0110           0
     15056 MEMB     113      POPC     H101     HEL1     0.150000       1.00800           0
     15057 MEMB     113      POPC     C211     CTL2    -0.180000       12.0110           0
     15058 MEMB     113      POPC     H11R     HAL2     0.900000E-01   1.00800           0
     15059 MEMB     113      POPC     H11S     HAL2     0.900000E-01   1.00800           0
     15060 MEMB     113      POPC     C212     CTL2    -0.180000       12.0110           0
     15061 MEMB     113      POPC     H12R     HAL2     0.900000E-01   1.00800           0
     15062 MEMB     113      POPC     H12S     HAL2     0.900000E-01   1.00800           0
     15063 MEMB     113      POPC     C213     CTL2    -0.180000       12.0110           0
     15064 MEMB     113      POPC     H13R     HAL2     0.900000E-01   1.00800           0
     15065 MEMB     113      POPC     H13S     HAL2     0.900000E-01   1.00800           0
     15066 MEMB     113      POPC     C214     CTL2    -0.180000       12.0110           0
     15067 MEMB     113      POPC     H14R     HAL2     0.900000E-01   1.00800           0
     15068 MEMB     113      POPC     H14S     HAL2     0.900000E-01   1.00800           0
     15069 MEMB     113      POPC     C215     CTL2    -0.180000       12.0110           0
     15070 MEMB     113      POPC     H15R     HAL2     0.900000E-01   1.00800           0
     15071 MEMB     113      POPC     H15S     HAL2     0.900000E-01   1.00800           0
     15072 MEMB     113      POPC     C216     CTL2    -0.180000       12.0110           0
     15073 MEMB     113      POPC     H16R     HAL2     0.900000E-01   1.00800           0
     15074 MEMB     113      POPC     H16S     HAL2     0.900000E-01   1.00800           0
     15075 MEMB     113      POPC     C217     CTL2    -0.180000       12.0110           0
     15076 MEMB     113      POPC     H17R     HAL2     0.900000E-01   1.00800           0
     15077 MEMB     113      POPC     H17S     HAL2     0.900000E-01   1.00800           0
     15078 MEMB     113      POPC     C218     CTL3    -0.270000       12.0110           0
     15079 MEMB     113      POPC     H18R     HAL3     0.900000E-01   1.00800           0
     15080 MEMB     113      POPC     H18S     HAL3     0.900000E-01   1.00800           0
     15081 MEMB     113      POPC     H18T     HAL3     0.900000E-01   1.00800           0
     15082 MEMB     113      POPC     C33      CTL2    -0.180000       12.0110           0
     15083 MEMB     113      POPC     H3X      HAL2     0.900000E-01   1.00800           0
     15084 MEMB     113      POPC     H3Y      HAL2     0.900000E-01   1.00800           0
     15085 MEMB     113      POPC     C34      CTL2    -0.180000       12.0110           0
     15086 MEMB     113      POPC     H4X      HAL2     0.900000E-01   1.00800           0
     15087 MEMB     113      POPC     H4Y      HAL2     0.900000E-01   1.00800           0
     15088 MEMB     113      POPC     C35      CTL2    -0.180000       12.0110           0
     15089 MEMB     113      POPC     H5X      HAL2     0.900000E-01   1.00800           0
     15090 MEMB     113      POPC     H5Y      HAL2     0.900000E-01   1.00800           0
     15091 MEMB     113      POPC     C36      CTL2    -0.180000       12.0110           0
     15092 MEMB     113      POPC     H6X      HAL2     0.900000E-01   1.00800           0
     15093 MEMB     113      POPC     H6Y      HAL2     0.900000E-01   1.00800           0
     15094 MEMB     113      POPC     C37      CTL2    -0.180000       12.0110           0
     15095 MEMB     113      POPC     H7X      HAL2     0.900000E-01   1.00800           0
     15096 MEMB     113      POPC     H7Y      HAL2     0.900000E-01   1.00800           0
     15097 MEMB     113      POPC     C38      CTL2    -0.180000       12.0110           0
     15098 MEMB     113      POPC     H8X      HAL2     0.900000E-01   1.00800           0
     15099 MEMB     113      POPC     H8Y      HAL2     0.900000E-01   1.00800           0
     15100 MEMB     113      POPC     C39      CTL2    -0.180000       12.0110           0
     15101 MEMB     113      POPC     H9X      HAL2     0.900000E-01   1.00800           0
     15102 MEMB     113      POPC     H9Y      HAL2     0.900000E-01   1.00800           0
     15103 MEMB     113      POPC     C310     CTL2    -0.180000       12.0110           0
     15104 MEMB     113      POPC     H10X     HAL2     0.900000E-01   1.00800           0
     15105 MEMB     113      POPC     H10Y     HAL2     0.900000E-01   1.00800           0
     15106 MEMB     113      POPC     C311     CTL2    -0.180000       12.0110           0
     15107 MEMB     113      POPC     H11X     HAL2     0.900000E-01   1.00800           0
     15108 MEMB     113      POPC     H11Y     HAL2     0.900000E-01   1.00800           0
     15109 MEMB     113      POPC     C312     CTL2    -0.180000       12.0110           0
     15110 MEMB     113      POPC     H12X     HAL2     0.900000E-01   1.00800           0
     15111 MEMB     113      POPC     H12Y     HAL2     0.900000E-01   1.00800           0
     15112 MEMB     113      POPC     C313     CTL2    -0.180000       12.0110           0
     15113 MEMB     113      POPC     H13X     HAL2     0.900000E-01   1.00800           0
     15114 MEMB     113      POPC     H13Y     HAL2     0.900000E-01   1.00800           0
     15115 MEMB     113      POPC     C314     CTL2    -0.180000       12.0110           0
     15116 MEMB     113      POPC     H14X     HAL2     0.900000E-01   1.00800           0
     15117 MEMB     113      POPC     H14Y     HAL2     0.900000E-01   1.00800           0
     15118 MEMB     113      POPC     C315     CTL2    -0.180000       12.0110           0
     15119 MEMB     113      POPC     H15X     HAL2     0.900000E-01   1.00800           0
     15120 MEMB     113      POPC     H15Y     HAL2     0.900000E-01   1.00800           0
     15121 MEMB     113      POPC     C316     CTL3    -0.270000       12.0110           0
     15122 MEMB     113      POPC     H16X     HAL3     0.900000E-01   1.00800           0
     15123 MEMB     113      POPC     H16Y     HAL3     0.900000E-01   1.00800           0
     15124 MEMB     113      POPC     H16Z     HAL3     0.900000E-01   1.00800           0
     15125 MEMB     114      POPC     N        NTL     -0.600000       14.0070           0
     15126 MEMB     114      POPC     C12      CTL2    -0.100000       12.0110           0
     15127 MEMB     114      POPC     H12A     HL       0.250000       1.00800           0
     15128 MEMB     114      POPC     H12B     HL       0.250000       1.00800           0
     15129 MEMB     114      POPC     C13      CTL5    -0.350000       12.0110           0
     15130 MEMB     114      POPC     H13A     HL       0.250000       1.00800           0
     15131 MEMB     114      POPC     H13B     HL       0.250000       1.00800           0
     15132 MEMB     114      POPC     H13C     HL       0.250000       1.00800           0
     15133 MEMB     114      POPC     C14      CTL5    -0.350000       12.0110           0
     15134 MEMB     114      POPC     H14A     HL       0.250000       1.00800           0
     15135 MEMB     114      POPC     H14B     HL       0.250000       1.00800           0
     15136 MEMB     114      POPC     H14C     HL       0.250000       1.00800           0
     15137 MEMB     114      POPC     C15      CTL5    -0.350000       12.0110           0
     15138 MEMB     114      POPC     H15A     HL       0.250000       1.00800           0
     15139 MEMB     114      POPC     H15B     HL       0.250000       1.00800           0
     15140 MEMB     114      POPC     H15C     HL       0.250000       1.00800           0
     15141 MEMB     114      POPC     C11      CTL2    -0.800000E-01   12.0110           0
     15142 MEMB     114      POPC     H11A     HAL2     0.900000E-01   1.00800           0
     15143 MEMB     114      POPC     H11B     HAL2     0.900000E-01   1.00800           0
     15144 MEMB     114      POPC     P        PL       1.500000       30.9740           0
     15145 MEMB     114      POPC     O13      O2L     -0.780000       15.9994           0
     15146 MEMB     114      POPC     O14      O2L     -0.780000       15.9994           0
     15147 MEMB     114      POPC     O12      OSLP    -0.570000       15.9994           0
     15148 MEMB     114      POPC     O11      OSLP    -0.570000       15.9994           0
     15149 MEMB     114      POPC     C1       CTL2    -0.800000E-01   12.0110           0
     15150 MEMB     114      POPC     HA       HAL2     0.900000E-01   1.00800           0
     15151 MEMB     114      POPC     HB       HAL2     0.900000E-01   1.00800           0
     15152 MEMB     114      POPC     C2       CTL1     0.170000       12.0110           0
     15153 MEMB     114      POPC     HS       HAL1     0.900000E-01   1.00800           0
     15154 MEMB     114      POPC     O21      OSL     -0.490000       15.9994           0
     15155 MEMB     114      POPC     C21      CL       0.900000       12.0110           0
     15156 MEMB     114      POPC     O22      OBL     -0.630000       15.9994           0
     15157 MEMB     114      POPC     C22      CTL2    -0.220000       12.0110           0
     15158 MEMB     114      POPC     H2R      HAL2     0.900000E-01   1.00800           0
     15159 MEMB     114      POPC     H2S      HAL2     0.900000E-01   1.00800           0
     15160 MEMB     114      POPC     C3       CTL2     0.800000E-01   12.0110           0
     15161 MEMB     114      POPC     HX       HAL2     0.900000E-01   1.00800           0
     15162 MEMB     114      POPC     HY       HAL2     0.900000E-01   1.00800           0
     15163 MEMB     114      POPC     O31      OSL     -0.490000       15.9994           0
     15164 MEMB     114      POPC     C31      CL       0.900000       12.0110           0
     15165 MEMB     114      POPC     O32      OBL     -0.630000       15.9994           0
     15166 MEMB     114      POPC     C32      CTL2    -0.220000       12.0110           0
     15167 MEMB     114      POPC     H2X      HAL2     0.900000E-01   1.00800           0
     15168 MEMB     114      POPC     H2Y      HAL2     0.900000E-01   1.00800           0
     15169 MEMB     114      POPC     C23      CTL2    -0.180000       12.0110           0
     15170 MEMB     114      POPC     H3R      HAL2     0.900000E-01   1.00800           0
     15171 MEMB     114      POPC     H3S      HAL2     0.900000E-01   1.00800           0
     15172 MEMB     114      POPC     C24      CTL2    -0.180000       12.0110           0
     15173 MEMB     114      POPC     H4R      HAL2     0.900000E-01   1.00800           0
     15174 MEMB     114      POPC     H4S      HAL2     0.900000E-01   1.00800           0
     15175 MEMB     114      POPC     C25      CTL2    -0.180000       12.0110           0
     15176 MEMB     114      POPC     H5R      HAL2     0.900000E-01   1.00800           0
     15177 MEMB     114      POPC     H5S      HAL2     0.900000E-01   1.00800           0
     15178 MEMB     114      POPC     C26      CTL2    -0.180000       12.0110           0
     15179 MEMB     114      POPC     H6R      HAL2     0.900000E-01   1.00800           0
     15180 MEMB     114      POPC     H6S      HAL2     0.900000E-01   1.00800           0
     15181 MEMB     114      POPC     C27      CTL2    -0.180000       12.0110           0
     15182 MEMB     114      POPC     H7R      HAL2     0.900000E-01   1.00800           0
     15183 MEMB     114      POPC     H7S      HAL2     0.900000E-01   1.00800           0
     15184 MEMB     114      POPC     C28      CTL2    -0.180000       12.0110           0
     15185 MEMB     114      POPC     H8R      HAL2     0.900000E-01   1.00800           0
     15186 MEMB     114      POPC     H8S      HAL2     0.900000E-01   1.00800           0
     15187 MEMB     114      POPC     C29      CEL1    -0.150000       12.0110           0
     15188 MEMB     114      POPC     H91      HEL1     0.150000       1.00800           0
     15189 MEMB     114      POPC     C210     CEL1    -0.150000       12.0110           0
     15190 MEMB     114      POPC     H101     HEL1     0.150000       1.00800           0
     15191 MEMB     114      POPC     C211     CTL2    -0.180000       12.0110           0
     15192 MEMB     114      POPC     H11R     HAL2     0.900000E-01   1.00800           0
     15193 MEMB     114      POPC     H11S     HAL2     0.900000E-01   1.00800           0
     15194 MEMB     114      POPC     C212     CTL2    -0.180000       12.0110           0
     15195 MEMB     114      POPC     H12R     HAL2     0.900000E-01   1.00800           0
     15196 MEMB     114      POPC     H12S     HAL2     0.900000E-01   1.00800           0
     15197 MEMB     114      POPC     C213     CTL2    -0.180000       12.0110           0
     15198 MEMB     114      POPC     H13R     HAL2     0.900000E-01   1.00800           0
     15199 MEMB     114      POPC     H13S     HAL2     0.900000E-01   1.00800           0
     15200 MEMB     114      POPC     C214     CTL2    -0.180000       12.0110           0
     15201 MEMB     114      POPC     H14R     HAL2     0.900000E-01   1.00800           0
     15202 MEMB     114      POPC     H14S     HAL2     0.900000E-01   1.00800           0
     15203 MEMB     114      POPC     C215     CTL2    -0.180000       12.0110           0
     15204 MEMB     114      POPC     H15R     HAL2     0.900000E-01   1.00800           0
     15205 MEMB     114      POPC     H15S     HAL2     0.900000E-01   1.00800           0
     15206 MEMB     114      POPC     C216     CTL2    -0.180000       12.0110           0
     15207 MEMB     114      POPC     H16R     HAL2     0.900000E-01   1.00800           0
     15208 MEMB     114      POPC     H16S     HAL2     0.900000E-01   1.00800           0
     15209 MEMB     114      POPC     C217     CTL2    -0.180000       12.0110           0
     15210 MEMB     114      POPC     H17R     HAL2     0.900000E-01   1.00800           0
     15211 MEMB     114      POPC     H17S     HAL2     0.900000E-01   1.00800           0
     15212 MEMB     114      POPC     C218     CTL3    -0.270000       12.0110           0
     15213 MEMB     114      POPC     H18R     HAL3     0.900000E-01   1.00800           0
     15214 MEMB     114      POPC     H18S     HAL3     0.900000E-01   1.00800           0
     15215 MEMB     114      POPC     H18T     HAL3     0.900000E-01   1.00800           0
     15216 MEMB     114      POPC     C33      CTL2    -0.180000       12.0110           0
     15217 MEMB     114      POPC     H3X      HAL2     0.900000E-01   1.00800           0
     15218 MEMB     114      POPC     H3Y      HAL2     0.900000E-01   1.00800           0
     15219 MEMB     114      POPC     C34      CTL2    -0.180000       12.0110           0
     15220 MEMB     114      POPC     H4X      HAL2     0.900000E-01   1.00800           0
     15221 MEMB     114      POPC     H4Y      HAL2     0.900000E-01   1.00800           0
     15222 MEMB     114      POPC     C35      CTL2    -0.180000       12.0110           0
     15223 MEMB     114      POPC     H5X      HAL2     0.900000E-01   1.00800           0
     15224 MEMB     114      POPC     H5Y      HAL2     0.900000E-01   1.00800           0
     15225 MEMB     114      POPC     C36      CTL2    -0.180000       12.0110           0
     15226 MEMB     114      POPC     H6X      HAL2     0.900000E-01   1.00800           0
     15227 MEMB     114      POPC     H6Y      HAL2     0.900000E-01   1.00800           0
     15228 MEMB     114      POPC     C37      CTL2    -0.180000       12.0110           0
     15229 MEMB     114      POPC     H7X      HAL2     0.900000E-01   1.00800           0
     15230 MEMB     114      POPC     H7Y      HAL2     0.900000E-01   1.00800           0
     15231 MEMB     114      POPC     C38      CTL2    -0.180000       12.0110           0
     15232 MEMB     114      POPC     H8X      HAL2     0.900000E-01   1.00800           0
     15233 MEMB     114      POPC     H8Y      HAL2     0.900000E-01   1.00800           0
     15234 MEMB     114      POPC     C39      CTL2    -0.180000       12.0110           0
     15235 MEMB     114      POPC     H9X      HAL2     0.900000E-01   1.00800           0
     15236 MEMB     114      POPC     H9Y      HAL2     0.900000E-01   1.00800           0
     15237 MEMB     114      POPC     C310     CTL2    -0.180000       12.0110           0
     15238 MEMB     114      POPC     H10X     HAL2     0.900000E-01   1.00800           0
     15239 MEMB     114      POPC     H10Y     HAL2     0.900000E-01   1.00800           0
     15240 MEMB     114      POPC     C311     CTL2    -0.180000       12.0110           0
     15241 MEMB     114      POPC     H11X     HAL2     0.900000E-01   1.00800           0
     15242 MEMB     114      POPC     H11Y     HAL2     0.900000E-01   1.00800           0
     15243 MEMB     114      POPC     C312     CTL2    -0.180000       12.0110           0
     15244 MEMB     114      POPC     H12X     HAL2     0.900000E-01   1.00800           0
     15245 MEMB     114      POPC     H12Y     HAL2     0.900000E-01   1.00800           0
     15246 MEMB     114      POPC     C313     CTL2    -0.180000       12.0110           0
     15247 MEMB     114      POPC     H13X     HAL2     0.900000E-01   1.00800           0
     15248 MEMB     114      POPC     H13Y     HAL2     0.900000E-01   1.00800           0
     15249 MEMB     114      POPC     C314     CTL2    -0.180000       12.0110           0
     15250 MEMB     114      POPC     H14X     HAL2     0.900000E-01   1.00800           0
     15251 MEMB     114      POPC     H14Y     HAL2     0.900000E-01   1.00800           0
     15252 MEMB     114      POPC     C315     CTL2    -0.180000       12.0110           0
     15253 MEMB     114      POPC     H15X     HAL2     0.900000E-01   1.00800           0
     15254 MEMB     114      POPC     H15Y     HAL2     0.900000E-01   1.00800           0
     15255 MEMB     114      POPC     C316     CTL3    -0.270000       12.0110           0
     15256 MEMB     114      POPC     H16X     HAL3     0.900000E-01   1.00800           0
     15257 MEMB     114      POPC     H16Y     HAL3     0.900000E-01   1.00800           0
     15258 MEMB     114      POPC     H16Z     HAL3     0.900000E-01   1.00800           0
     15259 MEMB     115      POPS     N        NH3L    -0.300000       14.0070           0
     15260 MEMB     115      POPS     HN1      HCL      0.330000       1.00800           0
     15261 MEMB     115      POPS     HN2      HCL      0.330000       1.00800           0
     15262 MEMB     115      POPS     HN3      HCL      0.330000       1.00800           0
     15263 MEMB     115      POPS     C12      CTL1     0.210000       12.0110           0
     15264 MEMB     115      POPS     H12A     HBL      0.100000       1.00800           0
     15265 MEMB     115      POPS     C13      CCL      0.340000       12.0110           0
     15266 MEMB     115      POPS     O13A     OCL     -0.670000       15.9994           0
     15267 MEMB     115      POPS     O13B     OCL     -0.670000       15.9994           0
     15268 MEMB     115      POPS     C11      CTL2    -0.800000E-01   12.0110           0
     15269 MEMB     115      POPS     H11A     HAL2     0.900000E-01   1.00800           0
     15270 MEMB     115      POPS     H11B     HAL2     0.900000E-01   1.00800           0
     15271 MEMB     115      POPS     P        PL       1.500000       30.9740           0
     15272 MEMB     115      POPS     O13      O2L     -0.780000       15.9994           0
     15273 MEMB     115      POPS     O14      O2L     -0.780000       15.9994           0
     15274 MEMB     115      POPS     O12      OSLP    -0.570000       15.9994           0
     15275 MEMB     115      POPS     O11      OSLP    -0.570000       15.9994           0
     15276 MEMB     115      POPS     C1       CTL2    -0.800000E-01   12.0110           0
     15277 MEMB     115      POPS     HA       HAL2     0.900000E-01   1.00800           0
     15278 MEMB     115      POPS     HB       HAL2     0.900000E-01   1.00800           0
     15279 MEMB     115      POPS     C2       CTL1     0.170000       12.0110           0
     15280 MEMB     115      POPS     HS       HAL1     0.900000E-01   1.00800           0
     15281 MEMB     115      POPS     O21      OSL     -0.490000       15.9994           0
     15282 MEMB     115      POPS     C21      CL       0.900000       12.0110           0
     15283 MEMB     115      POPS     O22      OBL     -0.630000       15.9994           0
     15284 MEMB     115      POPS     C22      CTL2    -0.220000       12.0110           0
     15285 MEMB     115      POPS     H2R      HAL2     0.900000E-01   1.00800           0
     15286 MEMB     115      POPS     H2S      HAL2     0.900000E-01   1.00800           0
     15287 MEMB     115      POPS     C3       CTL2     0.800000E-01   12.0110           0
     15288 MEMB     115      POPS     HX       HAL2     0.900000E-01   1.00800           0
     15289 MEMB     115      POPS     HY       HAL2     0.900000E-01   1.00800           0
     15290 MEMB     115      POPS     O31      OSL     -0.490000       15.9994           0
     15291 MEMB     115      POPS     C31      CL       0.900000       12.0110           0
     15292 MEMB     115      POPS     O32      OBL     -0.630000       15.9994           0
     15293 MEMB     115      POPS     C32      CTL2    -0.220000       12.0110           0
     15294 MEMB     115      POPS     H2X      HAL2     0.900000E-01   1.00800           0
     15295 MEMB     115      POPS     H2Y      HAL2     0.900000E-01   1.00800           0
     15296 MEMB     115      POPS     C23      CTL2    -0.180000       12.0110           0
     15297 MEMB     115      POPS     H3R      HAL2     0.900000E-01   1.00800           0
     15298 MEMB     115      POPS     H3S      HAL2     0.900000E-01   1.00800           0
     15299 MEMB     115      POPS     C24      CTL2    -0.180000       12.0110           0
     15300 MEMB     115      POPS     H4R      HAL2     0.900000E-01   1.00800           0
     15301 MEMB     115      POPS     H4S      HAL2     0.900000E-01   1.00800           0
     15302 MEMB     115      POPS     C25      CTL2    -0.180000       12.0110           0
     15303 MEMB     115      POPS     H5R      HAL2     0.900000E-01   1.00800           0
     15304 MEMB     115      POPS     H5S      HAL2     0.900000E-01   1.00800           0
     15305 MEMB     115      POPS     C26      CTL2    -0.180000       12.0110           0
     15306 MEMB     115      POPS     H6R      HAL2     0.900000E-01   1.00800           0
     15307 MEMB     115      POPS     H6S      HAL2     0.900000E-01   1.00800           0
     15308 MEMB     115      POPS     C27      CTL2    -0.180000       12.0110           0
     15309 MEMB     115      POPS     H7R      HAL2     0.900000E-01   1.00800           0
     15310 MEMB     115      POPS     H7S      HAL2     0.900000E-01   1.00800           0
     15311 MEMB     115      POPS     C28      CTL2    -0.180000       12.0110           0
     15312 MEMB     115      POPS     H8R      HAL2     0.900000E-01   1.00800           0
     15313 MEMB     115      POPS     H8S      HAL2     0.900000E-01   1.00800           0
     15314 MEMB     115      POPS     C29      CEL1    -0.150000       12.0110           0
     15315 MEMB     115      POPS     H91      HEL1     0.150000       1.00800           0
     15316 MEMB     115      POPS     C210     CEL1    -0.150000       12.0110           0
     15317 MEMB     115      POPS     H101     HEL1     0.150000       1.00800           0
     15318 MEMB     115      POPS     C211     CTL2    -0.180000       12.0110           0
     15319 MEMB     115      POPS     H11R     HAL2     0.900000E-01   1.00800           0
     15320 MEMB     115      POPS     H11S     HAL2     0.900000E-01   1.00800           0
     15321 MEMB     115      POPS     C212     CTL2    -0.180000       12.0110           0
     15322 MEMB     115      POPS     H12R     HAL2     0.900000E-01   1.00800           0
     15323 MEMB     115      POPS     H12S     HAL2     0.900000E-01   1.00800           0
     15324 MEMB     115      POPS     C213     CTL2    -0.180000       12.0110           0
     15325 MEMB     115      POPS     H13R     HAL2     0.900000E-01   1.00800           0
     15326 MEMB     115      POPS     H13S     HAL2     0.900000E-01   1.00800           0
     15327 MEMB     115      POPS     C214     CTL2    -0.180000       12.0110           0
     15328 MEMB     115      POPS     H14R     HAL2     0.900000E-01   1.00800           0
     15329 MEMB     115      POPS     H14S     HAL2     0.900000E-01   1.00800           0
     15330 MEMB     115      POPS     C215     CTL2    -0.180000       12.0110           0
     15331 MEMB     115      POPS     H15R     HAL2     0.900000E-01   1.00800           0
     15332 MEMB     115      POPS     H15S     HAL2     0.900000E-01   1.00800           0
     15333 MEMB     115      POPS     C216     CTL2    -0.180000       12.0110           0
     15334 MEMB     115      POPS     H16R     HAL2     0.900000E-01   1.00800           0
     15335 MEMB     115      POPS     H16S     HAL2     0.900000E-01   1.00800           0
     15336 MEMB     115      POPS     C217     CTL2    -0.180000       12.0110           0
     15337 MEMB     115      POPS     H17R     HAL2     0.900000E-01   1.00800           0
     15338 MEMB     115      POPS     H17S     HAL2     0.900000E-01   1.00800           0
     15339 MEMB     115      POPS     C218     CTL3    -0.270000       12.0110           0
     15340 MEMB     115      POPS     H18R     HAL3     0.900000E-01   1.00800           0
     15341 MEMB     115      POPS     H18S     HAL3     0.900000E-01   1.00800           0
     15342 MEMB     115      POPS     H18T     HAL3     0.900000E-01   1.00800           0
     15343 MEMB     115      POPS     C33      CTL2    -0.180000       12.0110           0
     15344 MEMB     115      POPS     H3X      HAL2     0.900000E-01   1.00800           0
     15345 MEMB     115      POPS     H3Y      HAL2     0.900000E-01   1.00800           0
     15346 MEMB     115      POPS     C34      CTL2    -0.180000       12.0110           0
     15347 MEMB     115      POPS     H4X      HAL2     0.900000E-01   1.00800           0
     15348 MEMB     115      POPS     H4Y      HAL2     0.900000E-01   1.00800           0
     15349 MEMB     115      POPS     C35      CTL2    -0.180000       12.0110           0
     15350 MEMB     115      POPS     H5X      HAL2     0.900000E-01   1.00800           0
     15351 MEMB     115      POPS     H5Y      HAL2     0.900000E-01   1.00800           0
     15352 MEMB     115      POPS     C36      CTL2    -0.180000       12.0110           0
     15353 MEMB     115      POPS     H6X      HAL2     0.900000E-01   1.00800           0
     15354 MEMB     115      POPS     H6Y      HAL2     0.900000E-01   1.00800           0
     15355 MEMB     115      POPS     C37      CTL2    -0.180000       12.0110           0
     15356 MEMB     115      POPS     H7X      HAL2     0.900000E-01   1.00800           0
     15357 MEMB     115      POPS     H7Y      HAL2     0.900000E-01   1.00800           0
     15358 MEMB     115      POPS     C38      CTL2    -0.180000       12.0110           0
     15359 MEMB     115      POPS     H8X      HAL2     0.900000E-01   1.00800           0
     15360 MEMB     115      POPS     H8Y      HAL2     0.900000E-01   1.00800           0
     15361 MEMB     115      POPS     C39      CTL2    -0.180000       12.0110           0
     15362 MEMB     115      POPS     H9X      HAL2     0.900000E-01   1.00800           0
     15363 MEMB     115      POPS     H9Y      HAL2     0.900000E-01   1.00800           0
     15364 MEMB     115      POPS     C310     CTL2    -0.180000       12.0110           0
     15365 MEMB     115      POPS     H10X     HAL2     0.900000E-01   1.00800           0
     15366 MEMB     115      POPS     H10Y     HAL2     0.900000E-01   1.00800           0
     15367 MEMB     115      POPS     C311     CTL2    -0.180000       12.0110           0
     15368 MEMB     115      POPS     H11X     HAL2     0.900000E-01   1.00800           0
     15369 MEMB     115      POPS     H11Y     HAL2     0.900000E-01   1.00800           0
     15370 MEMB     115      POPS     C312     CTL2    -0.180000       12.0110           0
     15371 MEMB     115      POPS     H12X     HAL2     0.900000E-01   1.00800           0
     15372 MEMB     115      POPS     H12Y     HAL2     0.900000E-01   1.00800           0
     15373 MEMB     115      POPS     C313     CTL2    -0.180000       12.0110           0
     15374 MEMB     115      POPS     H13X     HAL2     0.900000E-01   1.00800           0
     15375 MEMB     115      POPS     H13Y     HAL2     0.900000E-01   1.00800           0
     15376 MEMB     115      POPS     C314     CTL2    -0.180000       12.0110           0
     15377 MEMB     115      POPS     H14X     HAL2     0.900000E-01   1.00800           0
     15378 MEMB     115      POPS     H14Y     HAL2     0.900000E-01   1.00800           0
     15379 MEMB     115      POPS     C315     CTL2    -0.180000       12.0110           0
     15380 MEMB     115      POPS     H15X     HAL2     0.900000E-01   1.00800           0
     15381 MEMB     115      POPS     H15Y     HAL2     0.900000E-01   1.00800           0
     15382 MEMB     115      POPS     C316     CTL3    -0.270000       12.0110           0
     15383 MEMB     115      POPS     H16X     HAL3     0.900000E-01   1.00800           0
     15384 MEMB     115      POPS     H16Y     HAL3     0.900000E-01   1.00800           0
     15385 MEMB     115      POPS     H16Z     HAL3     0.900000E-01   1.00800           0
     15386 MEMB     116      POPC     N        NTL     -0.600000       14.0070           0
     15387 MEMB     116      POPC     C12      CTL2    -0.100000       12.0110           0
     15388 MEMB     116      POPC     H12A     HL       0.250000       1.00800           0
     15389 MEMB     116      POPC     H12B     HL       0.250000       1.00800           0
     15390 MEMB     116      POPC     C13      CTL5    -0.350000       12.0110           0
     15391 MEMB     116      POPC     H13A     HL       0.250000       1.00800           0
     15392 MEMB     116      POPC     H13B     HL       0.250000       1.00800           0
     15393 MEMB     116      POPC     H13C     HL       0.250000       1.00800           0
     15394 MEMB     116      POPC     C14      CTL5    -0.350000       12.0110           0
     15395 MEMB     116      POPC     H14A     HL       0.250000       1.00800           0
     15396 MEMB     116      POPC     H14B     HL       0.250000       1.00800           0
     15397 MEMB     116      POPC     H14C     HL       0.250000       1.00800           0
     15398 MEMB     116      POPC     C15      CTL5    -0.350000       12.0110           0
     15399 MEMB     116      POPC     H15A     HL       0.250000       1.00800           0
     15400 MEMB     116      POPC     H15B     HL       0.250000       1.00800           0
     15401 MEMB     116      POPC     H15C     HL       0.250000       1.00800           0
     15402 MEMB     116      POPC     C11      CTL2    -0.800000E-01   12.0110           0
     15403 MEMB     116      POPC     H11A     HAL2     0.900000E-01   1.00800           0
     15404 MEMB     116      POPC     H11B     HAL2     0.900000E-01   1.00800           0
     15405 MEMB     116      POPC     P        PL       1.500000       30.9740           0
     15406 MEMB     116      POPC     O13      O2L     -0.780000       15.9994           0
     15407 MEMB     116      POPC     O14      O2L     -0.780000       15.9994           0
     15408 MEMB     116      POPC     O12      OSLP    -0.570000       15.9994           0
     15409 MEMB     116      POPC     O11      OSLP    -0.570000       15.9994           0
     15410 MEMB     116      POPC     C1       CTL2    -0.800000E-01   12.0110           0
     15411 MEMB     116      POPC     HA       HAL2     0.900000E-01   1.00800           0
     15412 MEMB     116      POPC     HB       HAL2     0.900000E-01   1.00800           0
     15413 MEMB     116      POPC     C2       CTL1     0.170000       12.0110           0
     15414 MEMB     116      POPC     HS       HAL1     0.900000E-01   1.00800           0
     15415 MEMB     116      POPC     O21      OSL     -0.490000       15.9994           0
     15416 MEMB     116      POPC     C21      CL       0.900000       12.0110           0
     15417 MEMB     116      POPC     O22      OBL     -0.630000       15.9994           0
     15418 MEMB     116      POPC     C22      CTL2    -0.220000       12.0110           0
     15419 MEMB     116      POPC     H2R      HAL2     0.900000E-01   1.00800           0
     15420 MEMB     116      POPC     H2S      HAL2     0.900000E-01   1.00800           0
     15421 MEMB     116      POPC     C3       CTL2     0.800000E-01   12.0110           0
     15422 MEMB     116      POPC     HX       HAL2     0.900000E-01   1.00800           0
     15423 MEMB     116      POPC     HY       HAL2     0.900000E-01   1.00800           0
     15424 MEMB     116      POPC     O31      OSL     -0.490000       15.9994           0
     15425 MEMB     116      POPC     C31      CL       0.900000       12.0110           0
     15426 MEMB     116      POPC     O32      OBL     -0.630000       15.9994           0
     15427 MEMB     116      POPC     C32      CTL2    -0.220000       12.0110           0
     15428 MEMB     116      POPC     H2X      HAL2     0.900000E-01   1.00800           0
     15429 MEMB     116      POPC     H2Y      HAL2     0.900000E-01   1.00800           0
     15430 MEMB     116      POPC     C23      CTL2    -0.180000       12.0110           0
     15431 MEMB     116      POPC     H3R      HAL2     0.900000E-01   1.00800           0
     15432 MEMB     116      POPC     H3S      HAL2     0.900000E-01   1.00800           0
     15433 MEMB     116      POPC     C24      CTL2    -0.180000       12.0110           0
     15434 MEMB     116      POPC     H4R      HAL2     0.900000E-01   1.00800           0
     15435 MEMB     116      POPC     H4S      HAL2     0.900000E-01   1.00800           0
     15436 MEMB     116      POPC     C25      CTL2    -0.180000       12.0110           0
     15437 MEMB     116      POPC     H5R      HAL2     0.900000E-01   1.00800           0
     15438 MEMB     116      POPC     H5S      HAL2     0.900000E-01   1.00800           0
     15439 MEMB     116      POPC     C26      CTL2    -0.180000       12.0110           0
     15440 MEMB     116      POPC     H6R      HAL2     0.900000E-01   1.00800           0
     15441 MEMB     116      POPC     H6S      HAL2     0.900000E-01   1.00800           0
     15442 MEMB     116      POPC     C27      CTL2    -0.180000       12.0110           0
     15443 MEMB     116      POPC     H7R      HAL2     0.900000E-01   1.00800           0
     15444 MEMB     116      POPC     H7S      HAL2     0.900000E-01   1.00800           0
     15445 MEMB     116      POPC     C28      CTL2    -0.180000       12.0110           0
     15446 MEMB     116      POPC     H8R      HAL2     0.900000E-01   1.00800           0
     15447 MEMB     116      POPC     H8S      HAL2     0.900000E-01   1.00800           0
     15448 MEMB     116      POPC     C29      CEL1    -0.150000       12.0110           0
     15449 MEMB     116      POPC     H91      HEL1     0.150000       1.00800           0
     15450 MEMB     116      POPC     C210     CEL1    -0.150000       12.0110           0
     15451 MEMB     116      POPC     H101     HEL1     0.150000       1.00800           0
     15452 MEMB     116      POPC     C211     CTL2    -0.180000       12.0110           0
     15453 MEMB     116      POPC     H11R     HAL2     0.900000E-01   1.00800           0
     15454 MEMB     116      POPC     H11S     HAL2     0.900000E-01   1.00800           0
     15455 MEMB     116      POPC     C212     CTL2    -0.180000       12.0110           0
     15456 MEMB     116      POPC     H12R     HAL2     0.900000E-01   1.00800           0
     15457 MEMB     116      POPC     H12S     HAL2     0.900000E-01   1.00800           0
     15458 MEMB     116      POPC     C213     CTL2    -0.180000       12.0110           0
     15459 MEMB     116      POPC     H13R     HAL2     0.900000E-01   1.00800           0
     15460 MEMB     116      POPC     H13S     HAL2     0.900000E-01   1.00800           0
     15461 MEMB     116      POPC     C214     CTL2    -0.180000       12.0110           0
     15462 MEMB     116      POPC     H14R     HAL2     0.900000E-01   1.00800           0
     15463 MEMB     116      POPC     H14S     HAL2     0.900000E-01   1.00800           0
     15464 MEMB     116      POPC     C215     CTL2    -0.180000       12.0110           0
     15465 MEMB     116      POPC     H15R     HAL2     0.900000E-01   1.00800           0
     15466 MEMB     116      POPC     H15S     HAL2     0.900000E-01   1.00800           0
     15467 MEMB     116      POPC     C216     CTL2    -0.180000       12.0110           0
     15468 MEMB     116      POPC     H16R     HAL2     0.900000E-01   1.00800           0
     15469 MEMB     116      POPC     H16S     HAL2     0.900000E-01   1.00800           0
     15470 MEMB     116      POPC     C217     CTL2    -0.180000       12.0110           0
     15471 MEMB     116      POPC     H17R     HAL2     0.900000E-01   1.00800           0
     15472 MEMB     116      POPC     H17S     HAL2     0.900000E-01   1.00800           0
     15473 MEMB     116      POPC     C218     CTL3    -0.270000       12.0110           0
     15474 MEMB     116      POPC     H18R     HAL3     0.900000E-01   1.00800           0
     15475 MEMB     116      POPC     H18S     HAL3     0.900000E-01   1.00800           0
     15476 MEMB     116      POPC     H18T     HAL3     0.900000E-01   1.00800           0
     15477 MEMB     116      POPC     C33      CTL2    -0.180000       12.0110           0
     15478 MEMB     116      POPC     H3X      HAL2     0.900000E-01   1.00800           0
     15479 MEMB     116      POPC     H3Y      HAL2     0.900000E-01   1.00800           0
     15480 MEMB     116      POPC     C34      CTL2    -0.180000       12.0110           0
     15481 MEMB     116      POPC     H4X      HAL2     0.900000E-01   1.00800           0
     15482 MEMB     116      POPC     H4Y      HAL2     0.900000E-01   1.00800           0
     15483 MEMB     116      POPC     C35      CTL2    -0.180000       12.0110           0
     15484 MEMB     116      POPC     H5X      HAL2     0.900000E-01   1.00800           0
     15485 MEMB     116      POPC     H5Y      HAL2     0.900000E-01   1.00800           0
     15486 MEMB     116      POPC     C36      CTL2    -0.180000       12.0110           0
     15487 MEMB     116      POPC     H6X      HAL2     0.900000E-01   1.00800           0
     15488 MEMB     116      POPC     H6Y      HAL2     0.900000E-01   1.00800           0
     15489 MEMB     116      POPC     C37      CTL2    -0.180000       12.0110           0
     15490 MEMB     116      POPC     H7X      HAL2     0.900000E-01   1.00800           0
     15491 MEMB     116      POPC     H7Y      HAL2     0.900000E-01   1.00800           0
     15492 MEMB     116      POPC     C38      CTL2    -0.180000       12.0110           0
     15493 MEMB     116      POPC     H8X      HAL2     0.900000E-01   1.00800           0
     15494 MEMB     116      POPC     H8Y      HAL2     0.900000E-01   1.00800           0
     15495 MEMB     116      POPC     C39      CTL2    -0.180000       12.0110           0
     15496 MEMB     116      POPC     H9X      HAL2     0.900000E-01   1.00800           0
     15497 MEMB     116      POPC     H9Y      HAL2     0.900000E-01   1.00800           0
     15498 MEMB     116      POPC     C310     CTL2    -0.180000       12.0110           0
     15499 MEMB     116      POPC     H10X     HAL2     0.900000E-01   1.00800           0
     15500 MEMB     116      POPC     H10Y     HAL2     0.900000E-01   1.00800           0
     15501 MEMB     116      POPC     C311     CTL2    -0.180000       12.0110           0
     15502 MEMB     116      POPC     H11X     HAL2     0.900000E-01   1.00800           0
     15503 MEMB     116      POPC     H11Y     HAL2     0.900000E-01   1.00800           0
     15504 MEMB     116      POPC     C312     CTL2    -0.180000       12.0110           0
     15505 MEMB     116      POPC     H12X     HAL2     0.900000E-01   1.00800           0
     15506 MEMB     116      POPC     H12Y     HAL2     0.900000E-01   1.00800           0
     15507 MEMB     116      POPC     C313     CTL2    -0.180000       12.0110           0
     15508 MEMB     116      POPC     H13X     HAL2     0.900000E-01   1.00800           0
     15509 MEMB     116      POPC     H13Y     HAL2     0.900000E-01   1.00800           0
     15510 MEMB     116      POPC     C314     CTL2    -0.180000       12.0110           0
     15511 MEMB     116      POPC     H14X     HAL2     0.900000E-01   1.00800           0
     15512 MEMB     116      POPC     H14Y     HAL2     0.900000E-01   1.00800           0
     15513 MEMB     116      POPC     C315     CTL2    -0.180000       12.0110           0
     15514 MEMB     116      POPC     H15X     HAL2     0.900000E-01   1.00800           0
     15515 MEMB     116      POPC     H15Y     HAL2     0.900000E-01   1.00800           0
     15516 MEMB     116      POPC     C316     CTL3    -0.270000       12.0110           0
     15517 MEMB     116      POPC     H16X     HAL3     0.900000E-01   1.00800           0
     15518 MEMB     116      POPC     H16Y     HAL3     0.900000E-01   1.00800           0
     15519 MEMB     116      POPC     H16Z     HAL3     0.900000E-01   1.00800           0
     15520 MEMB     117      POPS     N        NH3L    -0.300000       14.0070           0
     15521 MEMB     117      POPS     HN1      HCL      0.330000       1.00800           0
     15522 MEMB     117      POPS     HN2      HCL      0.330000       1.00800           0
     15523 MEMB     117      POPS     HN3      HCL      0.330000       1.00800           0
     15524 MEMB     117      POPS     C12      CTL1     0.210000       12.0110           0
     15525 MEMB     117      POPS     H12A     HBL      0.100000       1.00800           0
     15526 MEMB     117      POPS     C13      CCL      0.340000       12.0110           0
     15527 MEMB     117      POPS     O13A     OCL     -0.670000       15.9994           0
     15528 MEMB     117      POPS     O13B     OCL     -0.670000       15.9994           0
     15529 MEMB     117      POPS     C11      CTL2    -0.800000E-01   12.0110           0
     15530 MEMB     117      POPS     H11A     HAL2     0.900000E-01   1.00800           0
     15531 MEMB     117      POPS     H11B     HAL2     0.900000E-01   1.00800           0
     15532 MEMB     117      POPS     P        PL       1.500000       30.9740           0
     15533 MEMB     117      POPS     O13      O2L     -0.780000       15.9994           0
     15534 MEMB     117      POPS     O14      O2L     -0.780000       15.9994           0
     15535 MEMB     117      POPS     O12      OSLP    -0.570000       15.9994           0
     15536 MEMB     117      POPS     O11      OSLP    -0.570000       15.9994           0
     15537 MEMB     117      POPS     C1       CTL2    -0.800000E-01   12.0110           0
     15538 MEMB     117      POPS     HA       HAL2     0.900000E-01   1.00800           0
     15539 MEMB     117      POPS     HB       HAL2     0.900000E-01   1.00800           0
     15540 MEMB     117      POPS     C2       CTL1     0.170000       12.0110           0
     15541 MEMB     117      POPS     HS       HAL1     0.900000E-01   1.00800           0
     15542 MEMB     117      POPS     O21      OSL     -0.490000       15.9994           0
     15543 MEMB     117      POPS     C21      CL       0.900000       12.0110           0
     15544 MEMB     117      POPS     O22      OBL     -0.630000       15.9994           0
     15545 MEMB     117      POPS     C22      CTL2    -0.220000       12.0110           0
     15546 MEMB     117      POPS     H2R      HAL2     0.900000E-01   1.00800           0
     15547 MEMB     117      POPS     H2S      HAL2     0.900000E-01   1.00800           0
     15548 MEMB     117      POPS     C3       CTL2     0.800000E-01   12.0110           0
     15549 MEMB     117      POPS     HX       HAL2     0.900000E-01   1.00800           0
     15550 MEMB     117      POPS     HY       HAL2     0.900000E-01   1.00800           0
     15551 MEMB     117      POPS     O31      OSL     -0.490000       15.9994           0
     15552 MEMB     117      POPS     C31      CL       0.900000       12.0110           0
     15553 MEMB     117      POPS     O32      OBL     -0.630000       15.9994           0
     15554 MEMB     117      POPS     C32      CTL2    -0.220000       12.0110           0
     15555 MEMB     117      POPS     H2X      HAL2     0.900000E-01   1.00800           0
     15556 MEMB     117      POPS     H2Y      HAL2     0.900000E-01   1.00800           0
     15557 MEMB     117      POPS     C23      CTL2    -0.180000       12.0110           0
     15558 MEMB     117      POPS     H3R      HAL2     0.900000E-01   1.00800           0
     15559 MEMB     117      POPS     H3S      HAL2     0.900000E-01   1.00800           0
     15560 MEMB     117      POPS     C24      CTL2    -0.180000       12.0110           0
     15561 MEMB     117      POPS     H4R      HAL2     0.900000E-01   1.00800           0
     15562 MEMB     117      POPS     H4S      HAL2     0.900000E-01   1.00800           0
     15563 MEMB     117      POPS     C25      CTL2    -0.180000       12.0110           0
     15564 MEMB     117      POPS     H5R      HAL2     0.900000E-01   1.00800           0
     15565 MEMB     117      POPS     H5S      HAL2     0.900000E-01   1.00800           0
     15566 MEMB     117      POPS     C26      CTL2    -0.180000       12.0110           0
     15567 MEMB     117      POPS     H6R      HAL2     0.900000E-01   1.00800           0
     15568 MEMB     117      POPS     H6S      HAL2     0.900000E-01   1.00800           0
     15569 MEMB     117      POPS     C27      CTL2    -0.180000       12.0110           0
     15570 MEMB     117      POPS     H7R      HAL2     0.900000E-01   1.00800           0
     15571 MEMB     117      POPS     H7S      HAL2     0.900000E-01   1.00800           0
     15572 MEMB     117      POPS     C28      CTL2    -0.180000       12.0110           0
     15573 MEMB     117      POPS     H8R      HAL2     0.900000E-01   1.00800           0
     15574 MEMB     117      POPS     H8S      HAL2     0.900000E-01   1.00800           0
     15575 MEMB     117      POPS     C29      CEL1    -0.150000       12.0110           0
     15576 MEMB     117      POPS     H91      HEL1     0.150000       1.00800           0
     15577 MEMB     117      POPS     C210     CEL1    -0.150000       12.0110           0
     15578 MEMB     117      POPS     H101     HEL1     0.150000       1.00800           0
     15579 MEMB     117      POPS     C211     CTL2    -0.180000       12.0110           0
     15580 MEMB     117      POPS     H11R     HAL2     0.900000E-01   1.00800           0
     15581 MEMB     117      POPS     H11S     HAL2     0.900000E-01   1.00800           0
     15582 MEMB     117      POPS     C212     CTL2    -0.180000       12.0110           0
     15583 MEMB     117      POPS     H12R     HAL2     0.900000E-01   1.00800           0
     15584 MEMB     117      POPS     H12S     HAL2     0.900000E-01   1.00800           0
     15585 MEMB     117      POPS     C213     CTL2    -0.180000       12.0110           0
     15586 MEMB     117      POPS     H13R     HAL2     0.900000E-01   1.00800           0
     15587 MEMB     117      POPS     H13S     HAL2     0.900000E-01   1.00800           0
     15588 MEMB     117      POPS     C214     CTL2    -0.180000       12.0110           0
     15589 MEMB     117      POPS     H14R     HAL2     0.900000E-01   1.00800           0
     15590 MEMB     117      POPS     H14S     HAL2     0.900000E-01   1.00800           0
     15591 MEMB     117      POPS     C215     CTL2    -0.180000       12.0110           0
     15592 MEMB     117      POPS     H15R     HAL2     0.900000E-01   1.00800           0
     15593 MEMB     117      POPS     H15S     HAL2     0.900000E-01   1.00800           0
     15594 MEMB     117      POPS     C216     CTL2    -0.180000       12.0110           0
     15595 MEMB     117      POPS     H16R     HAL2     0.900000E-01   1.00800           0
     15596 MEMB     117      POPS     H16S     HAL2     0.900000E-01   1.00800           0
     15597 MEMB     117      POPS     C217     CTL2    -0.180000       12.0110           0
     15598 MEMB     117      POPS     H17R     HAL2     0.900000E-01   1.00800           0
     15599 MEMB     117      POPS     H17S     HAL2     0.900000E-01   1.00800           0
     15600 MEMB     117      POPS     C218     CTL3    -0.270000       12.0110           0
     15601 MEMB     117      POPS     H18R     HAL3     0.900000E-01   1.00800           0
     15602 MEMB     117      POPS     H18S     HAL3     0.900000E-01   1.00800           0
     15603 MEMB     117      POPS     H18T     HAL3     0.900000E-01   1.00800           0
     15604 MEMB     117      POPS     C33      CTL2    -0.180000       12.0110           0
     15605 MEMB     117      POPS     H3X      HAL2     0.900000E-01   1.00800           0
     15606 MEMB     117      POPS     H3Y      HAL2     0.900000E-01   1.00800           0
     15607 MEMB     117      POPS     C34      CTL2    -0.180000       12.0110           0
     15608 MEMB     117      POPS     H4X      HAL2     0.900000E-01   1.00800           0
     15609 MEMB     117      POPS     H4Y      HAL2     0.900000E-01   1.00800           0
     15610 MEMB     117      POPS     C35      CTL2    -0.180000       12.0110           0
     15611 MEMB     117      POPS     H5X      HAL2     0.900000E-01   1.00800           0
     15612 MEMB     117      POPS     H5Y      HAL2     0.900000E-01   1.00800           0
     15613 MEMB     117      POPS     C36      CTL2    -0.180000       12.0110           0
     15614 MEMB     117      POPS     H6X      HAL2     0.900000E-01   1.00800           0
     15615 MEMB     117      POPS     H6Y      HAL2     0.900000E-01   1.00800           0
     15616 MEMB     117      POPS     C37      CTL2    -0.180000       12.0110           0
     15617 MEMB     117      POPS     H7X      HAL2     0.900000E-01   1.00800           0
     15618 MEMB     117      POPS     H7Y      HAL2     0.900000E-01   1.00800           0
     15619 MEMB     117      POPS     C38      CTL2    -0.180000       12.0110           0
     15620 MEMB     117      POPS     H8X      HAL2     0.900000E-01   1.00800           0
     15621 MEMB     117      POPS     H8Y      HAL2     0.900000E-01   1.00800           0
     15622 MEMB     117      POPS     C39      CTL2    -0.180000       12.0110           0
     15623 MEMB     117      POPS     H9X      HAL2     0.900000E-01   1.00800           0
     15624 MEMB     117      POPS     H9Y      HAL2     0.900000E-01   1.00800           0
     15625 MEMB     117      POPS     C310     CTL2    -0.180000       12.0110           0
     15626 MEMB     117      POPS     H10X     HAL2     0.900000E-01   1.00800           0
     15627 MEMB     117      POPS     H10Y     HAL2     0.900000E-01   1.00800           0
     15628 MEMB     117      POPS     C311     CTL2    -0.180000       12.0110           0
     15629 MEMB     117      POPS     H11X     HAL2     0.900000E-01   1.00800           0
     15630 MEMB     117      POPS     H11Y     HAL2     0.900000E-01   1.00800           0
     15631 MEMB     117      POPS     C312     CTL2    -0.180000       12.0110           0
     15632 MEMB     117      POPS     H12X     HAL2     0.900000E-01   1.00800           0
     15633 MEMB     117      POPS     H12Y     HAL2     0.900000E-01   1.00800           0
     15634 MEMB     117      POPS     C313     CTL2    -0.180000       12.0110           0
     15635 MEMB     117      POPS     H13X     HAL2     0.900000E-01   1.00800           0
     15636 MEMB     117      POPS     H13Y     HAL2     0.900000E-01   1.00800           0
     15637 MEMB     117      POPS     C314     CTL2    -0.180000       12.0110           0
     15638 MEMB     117      POPS     H14X     HAL2     0.900000E-01   1.00800           0
     15639 MEMB     117      POPS     H14Y     HAL2     0.900000E-01   1.00800           0
     15640 MEMB     117      POPS     C315     CTL2    -0.180000       12.0110           0
     15641 MEMB     117      POPS     H15X     HAL2     0.900000E-01   1.00800           0
     15642 MEMB     117      POPS     H15Y     HAL2     0.900000E-01   1.00800           0
     15643 MEMB     117      POPS     C316     CTL3    -0.270000       12.0110           0
     15644 MEMB     117      POPS     H16X     HAL3     0.900000E-01   1.00800           0
     15645 MEMB     117      POPS     H16Y     HAL3     0.900000E-01   1.00800           0
     15646 MEMB     117      POPS     H16Z     HAL3     0.900000E-01   1.00800           0
     15647 MEMB     118      POPS     N        NH3L    -0.300000       14.0070           0
     15648 MEMB     118      POPS     HN1      HCL      0.330000       1.00800           0
     15649 MEMB     118      POPS     HN2      HCL      0.330000       1.00800           0
     15650 MEMB     118      POPS     HN3      HCL      0.330000       1.00800           0
     15651 MEMB     118      POPS     C12      CTL1     0.210000       12.0110           0
     15652 MEMB     118      POPS     H12A     HBL      0.100000       1.00800           0
     15653 MEMB     118      POPS     C13      CCL      0.340000       12.0110           0
     15654 MEMB     118      POPS     O13A     OCL     -0.670000       15.9994           0
     15655 MEMB     118      POPS     O13B     OCL     -0.670000       15.9994           0
     15656 MEMB     118      POPS     C11      CTL2    -0.800000E-01   12.0110           0
     15657 MEMB     118      POPS     H11A     HAL2     0.900000E-01   1.00800           0
     15658 MEMB     118      POPS     H11B     HAL2     0.900000E-01   1.00800           0
     15659 MEMB     118      POPS     P        PL       1.500000       30.9740           0
     15660 MEMB     118      POPS     O13      O2L     -0.780000       15.9994           0
     15661 MEMB     118      POPS     O14      O2L     -0.780000       15.9994           0
     15662 MEMB     118      POPS     O12      OSLP    -0.570000       15.9994           0
     15663 MEMB     118      POPS     O11      OSLP    -0.570000       15.9994           0
     15664 MEMB     118      POPS     C1       CTL2    -0.800000E-01   12.0110           0
     15665 MEMB     118      POPS     HA       HAL2     0.900000E-01   1.00800           0
     15666 MEMB     118      POPS     HB       HAL2     0.900000E-01   1.00800           0
     15667 MEMB     118      POPS     C2       CTL1     0.170000       12.0110           0
     15668 MEMB     118      POPS     HS       HAL1     0.900000E-01   1.00800           0
     15669 MEMB     118      POPS     O21      OSL     -0.490000       15.9994           0
     15670 MEMB     118      POPS     C21      CL       0.900000       12.0110           0
     15671 MEMB     118      POPS     O22      OBL     -0.630000       15.9994           0
     15672 MEMB     118      POPS     C22      CTL2    -0.220000       12.0110           0
     15673 MEMB     118      POPS     H2R      HAL2     0.900000E-01   1.00800           0
     15674 MEMB     118      POPS     H2S      HAL2     0.900000E-01   1.00800           0
     15675 MEMB     118      POPS     C3       CTL2     0.800000E-01   12.0110           0
     15676 MEMB     118      POPS     HX       HAL2     0.900000E-01   1.00800           0
     15677 MEMB     118      POPS     HY       HAL2     0.900000E-01   1.00800           0
     15678 MEMB     118      POPS     O31      OSL     -0.490000       15.9994           0
     15679 MEMB     118      POPS     C31      CL       0.900000       12.0110           0
     15680 MEMB     118      POPS     O32      OBL     -0.630000       15.9994           0
     15681 MEMB     118      POPS     C32      CTL2    -0.220000       12.0110           0
     15682 MEMB     118      POPS     H2X      HAL2     0.900000E-01   1.00800           0
     15683 MEMB     118      POPS     H2Y      HAL2     0.900000E-01   1.00800           0
     15684 MEMB     118      POPS     C23      CTL2    -0.180000       12.0110           0
     15685 MEMB     118      POPS     H3R      HAL2     0.900000E-01   1.00800           0
     15686 MEMB     118      POPS     H3S      HAL2     0.900000E-01   1.00800           0
     15687 MEMB     118      POPS     C24      CTL2    -0.180000       12.0110           0
     15688 MEMB     118      POPS     H4R      HAL2     0.900000E-01   1.00800           0
     15689 MEMB     118      POPS     H4S      HAL2     0.900000E-01   1.00800           0
     15690 MEMB     118      POPS     C25      CTL2    -0.180000       12.0110           0
     15691 MEMB     118      POPS     H5R      HAL2     0.900000E-01   1.00800           0
     15692 MEMB     118      POPS     H5S      HAL2     0.900000E-01   1.00800           0
     15693 MEMB     118      POPS     C26      CTL2    -0.180000       12.0110           0
     15694 MEMB     118      POPS     H6R      HAL2     0.900000E-01   1.00800           0
     15695 MEMB     118      POPS     H6S      HAL2     0.900000E-01   1.00800           0
     15696 MEMB     118      POPS     C27      CTL2    -0.180000       12.0110           0
     15697 MEMB     118      POPS     H7R      HAL2     0.900000E-01   1.00800           0
     15698 MEMB     118      POPS     H7S      HAL2     0.900000E-01   1.00800           0
     15699 MEMB     118      POPS     C28      CTL2    -0.180000       12.0110           0
     15700 MEMB     118      POPS     H8R      HAL2     0.900000E-01   1.00800           0
     15701 MEMB     118      POPS     H8S      HAL2     0.900000E-01   1.00800           0
     15702 MEMB     118      POPS     C29      CEL1    -0.150000       12.0110           0
     15703 MEMB     118      POPS     H91      HEL1     0.150000       1.00800           0
     15704 MEMB     118      POPS     C210     CEL1    -0.150000       12.0110           0
     15705 MEMB     118      POPS     H101     HEL1     0.150000       1.00800           0
     15706 MEMB     118      POPS     C211     CTL2    -0.180000       12.0110           0
     15707 MEMB     118      POPS     H11R     HAL2     0.900000E-01   1.00800           0
     15708 MEMB     118      POPS     H11S     HAL2     0.900000E-01   1.00800           0
     15709 MEMB     118      POPS     C212     CTL2    -0.180000       12.0110           0
     15710 MEMB     118      POPS     H12R     HAL2     0.900000E-01   1.00800           0
     15711 MEMB     118      POPS     H12S     HAL2     0.900000E-01   1.00800           0
     15712 MEMB     118      POPS     C213     CTL2    -0.180000       12.0110           0
     15713 MEMB     118      POPS     H13R     HAL2     0.900000E-01   1.00800           0
     15714 MEMB     118      POPS     H13S     HAL2     0.900000E-01   1.00800           0
     15715 MEMB     118      POPS     C214     CTL2    -0.180000       12.0110           0
     15716 MEMB     118      POPS     H14R     HAL2     0.900000E-01   1.00800           0
     15717 MEMB     118      POPS     H14S     HAL2     0.900000E-01   1.00800           0
     15718 MEMB     118      POPS     C215     CTL2    -0.180000       12.0110           0
     15719 MEMB     118      POPS     H15R     HAL2     0.900000E-01   1.00800           0
     15720 MEMB     118      POPS     H15S     HAL2     0.900000E-01   1.00800           0
     15721 MEMB     118      POPS     C216     CTL2    -0.180000       12.0110           0
     15722 MEMB     118      POPS     H16R     HAL2     0.900000E-01   1.00800           0
     15723 MEMB     118      POPS     H16S     HAL2     0.900000E-01   1.00800           0
     15724 MEMB     118      POPS     C217     CTL2    -0.180000       12.0110           0
     15725 MEMB     118      POPS     H17R     HAL2     0.900000E-01   1.00800           0
     15726 MEMB     118      POPS     H17S     HAL2     0.900000E-01   1.00800           0
     15727 MEMB     118      POPS     C218     CTL3    -0.270000       12.0110           0
     15728 MEMB     118      POPS     H18R     HAL3     0.900000E-01   1.00800           0
     15729 MEMB     118      POPS     H18S     HAL3     0.900000E-01   1.00800           0
     15730 MEMB     118      POPS     H18T     HAL3     0.900000E-01   1.00800           0
     15731 MEMB     118      POPS     C33      CTL2    -0.180000       12.0110           0
     15732 MEMB     118      POPS     H3X      HAL2     0.900000E-01   1.00800           0
     15733 MEMB     118      POPS     H3Y      HAL2     0.900000E-01   1.00800           0
     15734 MEMB     118      POPS     C34      CTL2    -0.180000       12.0110           0
     15735 MEMB     118      POPS     H4X      HAL2     0.900000E-01   1.00800           0
     15736 MEMB     118      POPS     H4Y      HAL2     0.900000E-01   1.00800           0
     15737 MEMB     118      POPS     C35      CTL2    -0.180000       12.0110           0
     15738 MEMB     118      POPS     H5X      HAL2     0.900000E-01   1.00800           0
     15739 MEMB     118      POPS     H5Y      HAL2     0.900000E-01   1.00800           0
     15740 MEMB     118      POPS     C36      CTL2    -0.180000       12.0110           0
     15741 MEMB     118      POPS     H6X      HAL2     0.900000E-01   1.00800           0
     15742 MEMB     118      POPS     H6Y      HAL2     0.900000E-01   1.00800           0
     15743 MEMB     118      POPS     C37      CTL2    -0.180000       12.0110           0
     15744 MEMB     118      POPS     H7X      HAL2     0.900000E-01   1.00800           0
     15745 MEMB     118      POPS     H7Y      HAL2     0.900000E-01   1.00800           0
     15746 MEMB     118      POPS     C38      CTL2    -0.180000       12.0110           0
     15747 MEMB     118      POPS     H8X      HAL2     0.900000E-01   1.00800           0
     15748 MEMB     118      POPS     H8Y      HAL2     0.900000E-01   1.00800           0
     15749 MEMB     118      POPS     C39      CTL2    -0.180000       12.0110           0
     15750 MEMB     118      POPS     H9X      HAL2     0.900000E-01   1.00800           0
     15751 MEMB     118      POPS     H9Y      HAL2     0.900000E-01   1.00800           0
     15752 MEMB     118      POPS     C310     CTL2    -0.180000       12.0110           0
     15753 MEMB     118      POPS     H10X     HAL2     0.900000E-01   1.00800           0
     15754 MEMB     118      POPS     H10Y     HAL2     0.900000E-01   1.00800           0
     15755 MEMB     118      POPS     C311     CTL2    -0.180000       12.0110           0
     15756 MEMB     118      POPS     H11X     HAL2     0.900000E-01   1.00800           0
     15757 MEMB     118      POPS     H11Y     HAL2     0.900000E-01   1.00800           0
     15758 MEMB     118      POPS     C312     CTL2    -0.180000       12.0110           0
     15759 MEMB     118      POPS     H12X     HAL2     0.900000E-01   1.00800           0
     15760 MEMB     118      POPS     H12Y     HAL2     0.900000E-01   1.00800           0
     15761 MEMB     118      POPS     C313     CTL2    -0.180000       12.0110           0
     15762 MEMB     118      POPS     H13X     HAL2     0.900000E-01   1.00800           0
     15763 MEMB     118      POPS     H13Y     HAL2     0.900000E-01   1.00800           0
     15764 MEMB     118      POPS     C314     CTL2    -0.180000       12.0110           0
     15765 MEMB     118      POPS     H14X     HAL2     0.900000E-01   1.00800           0
     15766 MEMB     118      POPS     H14Y     HAL2     0.900000E-01   1.00800           0
     15767 MEMB     118      POPS     C315     CTL2    -0.180000       12.0110           0
     15768 MEMB     118      POPS     H15X     HAL2     0.900000E-01   1.00800           0
     15769 MEMB     118      POPS     H15Y     HAL2     0.900000E-01   1.00800           0
     15770 MEMB     118      POPS     C316     CTL3    -0.270000       12.0110           0
     15771 MEMB     118      POPS     H16X     HAL3     0.900000E-01   1.00800           0
     15772 MEMB     118      POPS     H16Y     HAL3     0.900000E-01   1.00800           0
     15773 MEMB     118      POPS     H16Z     HAL3     0.900000E-01   1.00800           0
     15774 MEMB     119      POPC     N        NTL     -0.600000       14.0070           0
     15775 MEMB     119      POPC     C12      CTL2    -0.100000       12.0110           0
     15776 MEMB     119      POPC     H12A     HL       0.250000       1.00800           0
     15777 MEMB     119      POPC     H12B     HL       0.250000       1.00800           0
     15778 MEMB     119      POPC     C13      CTL5    -0.350000       12.0110           0
     15779 MEMB     119      POPC     H13A     HL       0.250000       1.00800           0
     15780 MEMB     119      POPC     H13B     HL       0.250000       1.00800           0
     15781 MEMB     119      POPC     H13C     HL       0.250000       1.00800           0
     15782 MEMB     119      POPC     C14      CTL5    -0.350000       12.0110           0
     15783 MEMB     119      POPC     H14A     HL       0.250000       1.00800           0
     15784 MEMB     119      POPC     H14B     HL       0.250000       1.00800           0
     15785 MEMB     119      POPC     H14C     HL       0.250000       1.00800           0
     15786 MEMB     119      POPC     C15      CTL5    -0.350000       12.0110           0
     15787 MEMB     119      POPC     H15A     HL       0.250000       1.00800           0
     15788 MEMB     119      POPC     H15B     HL       0.250000       1.00800           0
     15789 MEMB     119      POPC     H15C     HL       0.250000       1.00800           0
     15790 MEMB     119      POPC     C11      CTL2    -0.800000E-01   12.0110           0
     15791 MEMB     119      POPC     H11A     HAL2     0.900000E-01   1.00800           0
     15792 MEMB     119      POPC     H11B     HAL2     0.900000E-01   1.00800           0
     15793 MEMB     119      POPC     P        PL       1.500000       30.9740           0
     15794 MEMB     119      POPC     O13      O2L     -0.780000       15.9994           0
     15795 MEMB     119      POPC     O14      O2L     -0.780000       15.9994           0
     15796 MEMB     119      POPC     O12      OSLP    -0.570000       15.9994           0
     15797 MEMB     119      POPC     O11      OSLP    -0.570000       15.9994           0
     15798 MEMB     119      POPC     C1       CTL2    -0.800000E-01   12.0110           0
     15799 MEMB     119      POPC     HA       HAL2     0.900000E-01   1.00800           0
     15800 MEMB     119      POPC     HB       HAL2     0.900000E-01   1.00800           0
     15801 MEMB     119      POPC     C2       CTL1     0.170000       12.0110           0
     15802 MEMB     119      POPC     HS       HAL1     0.900000E-01   1.00800           0
     15803 MEMB     119      POPC     O21      OSL     -0.490000       15.9994           0
     15804 MEMB     119      POPC     C21      CL       0.900000       12.0110           0
     15805 MEMB     119      POPC     O22      OBL     -0.630000       15.9994           0
     15806 MEMB     119      POPC     C22      CTL2    -0.220000       12.0110           0
     15807 MEMB     119      POPC     H2R      HAL2     0.900000E-01   1.00800           0
     15808 MEMB     119      POPC     H2S      HAL2     0.900000E-01   1.00800           0
     15809 MEMB     119      POPC     C3       CTL2     0.800000E-01   12.0110           0
     15810 MEMB     119      POPC     HX       HAL2     0.900000E-01   1.00800           0
     15811 MEMB     119      POPC     HY       HAL2     0.900000E-01   1.00800           0
     15812 MEMB     119      POPC     O31      OSL     -0.490000       15.9994           0
     15813 MEMB     119      POPC     C31      CL       0.900000       12.0110           0
     15814 MEMB     119      POPC     O32      OBL     -0.630000       15.9994           0
     15815 MEMB     119      POPC     C32      CTL2    -0.220000       12.0110           0
     15816 MEMB     119      POPC     H2X      HAL2     0.900000E-01   1.00800           0
     15817 MEMB     119      POPC     H2Y      HAL2     0.900000E-01   1.00800           0
     15818 MEMB     119      POPC     C23      CTL2    -0.180000       12.0110           0
     15819 MEMB     119      POPC     H3R      HAL2     0.900000E-01   1.00800           0
     15820 MEMB     119      POPC     H3S      HAL2     0.900000E-01   1.00800           0
     15821 MEMB     119      POPC     C24      CTL2    -0.180000       12.0110           0
     15822 MEMB     119      POPC     H4R      HAL2     0.900000E-01   1.00800           0
     15823 MEMB     119      POPC     H4S      HAL2     0.900000E-01   1.00800           0
     15824 MEMB     119      POPC     C25      CTL2    -0.180000       12.0110           0
     15825 MEMB     119      POPC     H5R      HAL2     0.900000E-01   1.00800           0
     15826 MEMB     119      POPC     H5S      HAL2     0.900000E-01   1.00800           0
     15827 MEMB     119      POPC     C26      CTL2    -0.180000       12.0110           0
     15828 MEMB     119      POPC     H6R      HAL2     0.900000E-01   1.00800           0
     15829 MEMB     119      POPC     H6S      HAL2     0.900000E-01   1.00800           0
     15830 MEMB     119      POPC     C27      CTL2    -0.180000       12.0110           0
     15831 MEMB     119      POPC     H7R      HAL2     0.900000E-01   1.00800           0
     15832 MEMB     119      POPC     H7S      HAL2     0.900000E-01   1.00800           0
     15833 MEMB     119      POPC     C28      CTL2    -0.180000       12.0110           0
     15834 MEMB     119      POPC     H8R      HAL2     0.900000E-01   1.00800           0
     15835 MEMB     119      POPC     H8S      HAL2     0.900000E-01   1.00800           0
     15836 MEMB     119      POPC     C29      CEL1    -0.150000       12.0110           0
     15837 MEMB     119      POPC     H91      HEL1     0.150000       1.00800           0
     15838 MEMB     119      POPC     C210     CEL1    -0.150000       12.0110           0
     15839 MEMB     119      POPC     H101     HEL1     0.150000       1.00800           0
     15840 MEMB     119      POPC     C211     CTL2    -0.180000       12.0110           0
     15841 MEMB     119      POPC     H11R     HAL2     0.900000E-01   1.00800           0
     15842 MEMB     119      POPC     H11S     HAL2     0.900000E-01   1.00800           0
     15843 MEMB     119      POPC     C212     CTL2    -0.180000       12.0110           0
     15844 MEMB     119      POPC     H12R     HAL2     0.900000E-01   1.00800           0
     15845 MEMB     119      POPC     H12S     HAL2     0.900000E-01   1.00800           0
     15846 MEMB     119      POPC     C213     CTL2    -0.180000       12.0110           0
     15847 MEMB     119      POPC     H13R     HAL2     0.900000E-01   1.00800           0
     15848 MEMB     119      POPC     H13S     HAL2     0.900000E-01   1.00800           0
     15849 MEMB     119      POPC     C214     CTL2    -0.180000       12.0110           0
     15850 MEMB     119      POPC     H14R     HAL2     0.900000E-01   1.00800           0
     15851 MEMB     119      POPC     H14S     HAL2     0.900000E-01   1.00800           0
     15852 MEMB     119      POPC     C215     CTL2    -0.180000       12.0110           0
     15853 MEMB     119      POPC     H15R     HAL2     0.900000E-01   1.00800           0
     15854 MEMB     119      POPC     H15S     HAL2     0.900000E-01   1.00800           0
     15855 MEMB     119      POPC     C216     CTL2    -0.180000       12.0110           0
     15856 MEMB     119      POPC     H16R     HAL2     0.900000E-01   1.00800           0
     15857 MEMB     119      POPC     H16S     HAL2     0.900000E-01   1.00800           0
     15858 MEMB     119      POPC     C217     CTL2    -0.180000       12.0110           0
     15859 MEMB     119      POPC     H17R     HAL2     0.900000E-01   1.00800           0
     15860 MEMB     119      POPC     H17S     HAL2     0.900000E-01   1.00800           0
     15861 MEMB     119      POPC     C218     CTL3    -0.270000       12.0110           0
     15862 MEMB     119      POPC     H18R     HAL3     0.900000E-01   1.00800           0
     15863 MEMB     119      POPC     H18S     HAL3     0.900000E-01   1.00800           0
     15864 MEMB     119      POPC     H18T     HAL3     0.900000E-01   1.00800           0
     15865 MEMB     119      POPC     C33      CTL2    -0.180000       12.0110           0
     15866 MEMB     119      POPC     H3X      HAL2     0.900000E-01   1.00800           0
     15867 MEMB     119      POPC     H3Y      HAL2     0.900000E-01   1.00800           0
     15868 MEMB     119      POPC     C34      CTL2    -0.180000       12.0110           0
     15869 MEMB     119      POPC     H4X      HAL2     0.900000E-01   1.00800           0
     15870 MEMB     119      POPC     H4Y      HAL2     0.900000E-01   1.00800           0
     15871 MEMB     119      POPC     C35      CTL2    -0.180000       12.0110           0
     15872 MEMB     119      POPC     H5X      HAL2     0.900000E-01   1.00800           0
     15873 MEMB     119      POPC     H5Y      HAL2     0.900000E-01   1.00800           0
     15874 MEMB     119      POPC     C36      CTL2    -0.180000       12.0110           0
     15875 MEMB     119      POPC     H6X      HAL2     0.900000E-01   1.00800           0
     15876 MEMB     119      POPC     H6Y      HAL2     0.900000E-01   1.00800           0
     15877 MEMB     119      POPC     C37      CTL2    -0.180000       12.0110           0
     15878 MEMB     119      POPC     H7X      HAL2     0.900000E-01   1.00800           0
     15879 MEMB     119      POPC     H7Y      HAL2     0.900000E-01   1.00800           0
     15880 MEMB     119      POPC     C38      CTL2    -0.180000       12.0110           0
     15881 MEMB     119      POPC     H8X      HAL2     0.900000E-01   1.00800           0
     15882 MEMB     119      POPC     H8Y      HAL2     0.900000E-01   1.00800           0
     15883 MEMB     119      POPC     C39      CTL2    -0.180000       12.0110           0
     15884 MEMB     119      POPC     H9X      HAL2     0.900000E-01   1.00800           0
     15885 MEMB     119      POPC     H9Y      HAL2     0.900000E-01   1.00800           0
     15886 MEMB     119      POPC     C310     CTL2    -0.180000       12.0110           0
     15887 MEMB     119      POPC     H10X     HAL2     0.900000E-01   1.00800           0
     15888 MEMB     119      POPC     H10Y     HAL2     0.900000E-01   1.00800           0
     15889 MEMB     119      POPC     C311     CTL2    -0.180000       12.0110           0
     15890 MEMB     119      POPC     H11X     HAL2     0.900000E-01   1.00800           0
     15891 MEMB     119      POPC     H11Y     HAL2     0.900000E-01   1.00800           0
     15892 MEMB     119      POPC     C312     CTL2    -0.180000       12.0110           0
     15893 MEMB     119      POPC     H12X     HAL2     0.900000E-01   1.00800           0
     15894 MEMB     119      POPC     H12Y     HAL2     0.900000E-01   1.00800           0
     15895 MEMB     119      POPC     C313     CTL2    -0.180000       12.0110           0
     15896 MEMB     119      POPC     H13X     HAL2     0.900000E-01   1.00800           0
     15897 MEMB     119      POPC     H13Y     HAL2     0.900000E-01   1.00800           0
     15898 MEMB     119      POPC     C314     CTL2    -0.180000       12.0110           0
     15899 MEMB     119      POPC     H14X     HAL2     0.900000E-01   1.00800           0
     15900 MEMB     119      POPC     H14Y     HAL2     0.900000E-01   1.00800           0
     15901 MEMB     119      POPC     C315     CTL2    -0.180000       12.0110           0
     15902 MEMB     119      POPC     H15X     HAL2     0.900000E-01   1.00800           0
     15903 MEMB     119      POPC     H15Y     HAL2     0.900000E-01   1.00800           0
     15904 MEMB     119      POPC     C316     CTL3    -0.270000       12.0110           0
     15905 MEMB     119      POPC     H16X     HAL3     0.900000E-01   1.00800           0
     15906 MEMB     119      POPC     H16Y     HAL3     0.900000E-01   1.00800           0
     15907 MEMB     119      POPC     H16Z     HAL3     0.900000E-01   1.00800           0
     15908 MEMB     120      POPS     N        NH3L    -0.300000       14.0070           0
     15909 MEMB     120      POPS     HN1      HCL      0.330000       1.00800           0
     15910 MEMB     120      POPS     HN2      HCL      0.330000       1.00800           0
     15911 MEMB     120      POPS     HN3      HCL      0.330000       1.00800           0
     15912 MEMB     120      POPS     C12      CTL1     0.210000       12.0110           0
     15913 MEMB     120      POPS     H12A     HBL      0.100000       1.00800           0
     15914 MEMB     120      POPS     C13      CCL      0.340000       12.0110           0
     15915 MEMB     120      POPS     O13A     OCL     -0.670000       15.9994           0
     15916 MEMB     120      POPS     O13B     OCL     -0.670000       15.9994           0
     15917 MEMB     120      POPS     C11      CTL2    -0.800000E-01   12.0110           0
     15918 MEMB     120      POPS     H11A     HAL2     0.900000E-01   1.00800           0
     15919 MEMB     120      POPS     H11B     HAL2     0.900000E-01   1.00800           0
     15920 MEMB     120      POPS     P        PL       1.500000       30.9740           0
     15921 MEMB     120      POPS     O13      O2L     -0.780000       15.9994           0
     15922 MEMB     120      POPS     O14      O2L     -0.780000       15.9994           0
     15923 MEMB     120      POPS     O12      OSLP    -0.570000       15.9994           0
     15924 MEMB     120      POPS     O11      OSLP    -0.570000       15.9994           0
     15925 MEMB     120      POPS     C1       CTL2    -0.800000E-01   12.0110           0
     15926 MEMB     120      POPS     HA       HAL2     0.900000E-01   1.00800           0
     15927 MEMB     120      POPS     HB       HAL2     0.900000E-01   1.00800           0
     15928 MEMB     120      POPS     C2       CTL1     0.170000       12.0110           0
     15929 MEMB     120      POPS     HS       HAL1     0.900000E-01   1.00800           0
     15930 MEMB     120      POPS     O21      OSL     -0.490000       15.9994           0
     15931 MEMB     120      POPS     C21      CL       0.900000       12.0110           0
     15932 MEMB     120      POPS     O22      OBL     -0.630000       15.9994           0
     15933 MEMB     120      POPS     C22      CTL2    -0.220000       12.0110           0
     15934 MEMB     120      POPS     H2R      HAL2     0.900000E-01   1.00800           0
     15935 MEMB     120      POPS     H2S      HAL2     0.900000E-01   1.00800           0
     15936 MEMB     120      POPS     C3       CTL2     0.800000E-01   12.0110           0
     15937 MEMB     120      POPS     HX       HAL2     0.900000E-01   1.00800           0
     15938 MEMB     120      POPS     HY       HAL2     0.900000E-01   1.00800           0
     15939 MEMB     120      POPS     O31      OSL     -0.490000       15.9994           0
     15940 MEMB     120      POPS     C31      CL       0.900000       12.0110           0
     15941 MEMB     120      POPS     O32      OBL     -0.630000       15.9994           0
     15942 MEMB     120      POPS     C32      CTL2    -0.220000       12.0110           0
     15943 MEMB     120      POPS     H2X      HAL2     0.900000E-01   1.00800           0
     15944 MEMB     120      POPS     H2Y      HAL2     0.900000E-01   1.00800           0
     15945 MEMB     120      POPS     C23      CTL2    -0.180000       12.0110           0
     15946 MEMB     120      POPS     H3R      HAL2     0.900000E-01   1.00800           0
     15947 MEMB     120      POPS     H3S      HAL2     0.900000E-01   1.00800           0
     15948 MEMB     120      POPS     C24      CTL2    -0.180000       12.0110           0
     15949 MEMB     120      POPS     H4R      HAL2     0.900000E-01   1.00800           0
     15950 MEMB     120      POPS     H4S      HAL2     0.900000E-01   1.00800           0
     15951 MEMB     120      POPS     C25      CTL2    -0.180000       12.0110           0
     15952 MEMB     120      POPS     H5R      HAL2     0.900000E-01   1.00800           0
     15953 MEMB     120      POPS     H5S      HAL2     0.900000E-01   1.00800           0
     15954 MEMB     120      POPS     C26      CTL2    -0.180000       12.0110           0
     15955 MEMB     120      POPS     H6R      HAL2     0.900000E-01   1.00800           0
     15956 MEMB     120      POPS     H6S      HAL2     0.900000E-01   1.00800           0
     15957 MEMB     120      POPS     C27      CTL2    -0.180000       12.0110           0
     15958 MEMB     120      POPS     H7R      HAL2     0.900000E-01   1.00800           0
     15959 MEMB     120      POPS     H7S      HAL2     0.900000E-01   1.00800           0
     15960 MEMB     120      POPS     C28      CTL2    -0.180000       12.0110           0
     15961 MEMB     120      POPS     H8R      HAL2     0.900000E-01   1.00800           0
     15962 MEMB     120      POPS     H8S      HAL2     0.900000E-01   1.00800           0
     15963 MEMB     120      POPS     C29      CEL1    -0.150000       12.0110           0
     15964 MEMB     120      POPS     H91      HEL1     0.150000       1.00800           0
     15965 MEMB     120      POPS     C210     CEL1    -0.150000       12.0110           0
     15966 MEMB     120      POPS     H101     HEL1     0.150000       1.00800           0
     15967 MEMB     120      POPS     C211     CTL2    -0.180000       12.0110           0
     15968 MEMB     120      POPS     H11R     HAL2     0.900000E-01   1.00800           0
     15969 MEMB     120      POPS     H11S     HAL2     0.900000E-01   1.00800           0
     15970 MEMB     120      POPS     C212     CTL2    -0.180000       12.0110           0
     15971 MEMB     120      POPS     H12R     HAL2     0.900000E-01   1.00800           0
     15972 MEMB     120      POPS     H12S     HAL2     0.900000E-01   1.00800           0
     15973 MEMB     120      POPS     C213     CTL2    -0.180000       12.0110           0
     15974 MEMB     120      POPS     H13R     HAL2     0.900000E-01   1.00800           0
     15975 MEMB     120      POPS     H13S     HAL2     0.900000E-01   1.00800           0
     15976 MEMB     120      POPS     C214     CTL2    -0.180000       12.0110           0
     15977 MEMB     120      POPS     H14R     HAL2     0.900000E-01   1.00800           0
     15978 MEMB     120      POPS     H14S     HAL2     0.900000E-01   1.00800           0
     15979 MEMB     120      POPS     C215     CTL2    -0.180000       12.0110           0
     15980 MEMB     120      POPS     H15R     HAL2     0.900000E-01   1.00800           0
     15981 MEMB     120      POPS     H15S     HAL2     0.900000E-01   1.00800           0
     15982 MEMB     120      POPS     C216     CTL2    -0.180000       12.0110           0
     15983 MEMB     120      POPS     H16R     HAL2     0.900000E-01   1.00800           0
     15984 MEMB     120      POPS     H16S     HAL2     0.900000E-01   1.00800           0
     15985 MEMB     120      POPS     C217     CTL2    -0.180000       12.0110           0
     15986 MEMB     120      POPS     H17R     HAL2     0.900000E-01   1.00800           0
     15987 MEMB     120      POPS     H17S     HAL2     0.900000E-01   1.00800           0
     15988 MEMB     120      POPS     C218     CTL3    -0.270000       12.0110           0
     15989 MEMB     120      POPS     H18R     HAL3     0.900000E-01   1.00800           0
     15990 MEMB     120      POPS     H18S     HAL3     0.900000E-01   1.00800           0
     15991 MEMB     120      POPS     H18T     HAL3     0.900000E-01   1.00800           0
     15992 MEMB     120      POPS     C33      CTL2    -0.180000       12.0110           0
     15993 MEMB     120      POPS     H3X      HAL2     0.900000E-01   1.00800           0
     15994 MEMB     120      POPS     H3Y      HAL2     0.900000E-01   1.00800           0
     15995 MEMB     120      POPS     C34      CTL2    -0.180000       12.0110           0
     15996 MEMB     120      POPS     H4X      HAL2     0.900000E-01   1.00800           0
     15997 MEMB     120      POPS     H4Y      HAL2     0.900000E-01   1.00800           0
     15998 MEMB     120      POPS     C35      CTL2    -0.180000       12.0110           0
     15999 MEMB     120      POPS     H5X      HAL2     0.900000E-01   1.00800           0
     16000 MEMB     120      POPS     H5Y      HAL2     0.900000E-01   1.00800           0
     16001 MEMB     120      POPS     C36      CTL2    -0.180000       12.0110           0
     16002 MEMB     120      POPS     H6X      HAL2     0.900000E-01   1.00800           0
     16003 MEMB     120      POPS     H6Y      HAL2     0.900000E-01   1.00800           0
     16004 MEMB     120      POPS     C37      CTL2    -0.180000       12.0110           0
     16005 MEMB     120      POPS     H7X      HAL2     0.900000E-01   1.00800           0
     16006 MEMB     120      POPS     H7Y      HAL2     0.900000E-01   1.00800           0
     16007 MEMB     120      POPS     C38      CTL2    -0.180000       12.0110           0
     16008 MEMB     120      POPS     H8X      HAL2     0.900000E-01   1.00800           0
     16009 MEMB     120      POPS     H8Y      HAL2     0.900000E-01   1.00800           0
     16010 MEMB     120      POPS     C39      CTL2    -0.180000       12.0110           0
     16011 MEMB     120      POPS     H9X      HAL2     0.900000E-01   1.00800           0
     16012 MEMB     120      POPS     H9Y      HAL2     0.900000E-01   1.00800           0
     16013 MEMB     120      POPS     C310     CTL2    -0.180000       12.0110           0
     16014 MEMB     120      POPS     H10X     HAL2     0.900000E-01   1.00800           0
     16015 MEMB     120      POPS     H10Y     HAL2     0.900000E-01   1.00800           0
     16016 MEMB     120      POPS     C311     CTL2    -0.180000       12.0110           0
     16017 MEMB     120      POPS     H11X     HAL2     0.900000E-01   1.00800           0
     16018 MEMB     120      POPS     H11Y     HAL2     0.900000E-01   1.00800           0
     16019 MEMB     120      POPS     C312     CTL2    -0.180000       12.0110           0
     16020 MEMB     120      POPS     H12X     HAL2     0.900000E-01   1.00800           0
     16021 MEMB     120      POPS     H12Y     HAL2     0.900000E-01   1.00800           0
     16022 MEMB     120      POPS     C313     CTL2    -0.180000       12.0110           0
     16023 MEMB     120      POPS     H13X     HAL2     0.900000E-01   1.00800           0
     16024 MEMB     120      POPS     H13Y     HAL2     0.900000E-01   1.00800           0
     16025 MEMB     120      POPS     C314     CTL2    -0.180000       12.0110           0
     16026 MEMB     120      POPS     H14X     HAL2     0.900000E-01   1.00800           0
     16027 MEMB     120      POPS     H14Y     HAL2     0.900000E-01   1.00800           0
     16028 MEMB     120      POPS     C315     CTL2    -0.180000       12.0110           0
     16029 MEMB     120      POPS     H15X     HAL2     0.900000E-01   1.00800           0
     16030 MEMB     120      POPS     H15Y     HAL2     0.900000E-01   1.00800           0
     16031 MEMB     120      POPS     C316     CTL3    -0.270000       12.0110           0
     16032 MEMB     120      POPS     H16X     HAL3     0.900000E-01   1.00800           0
     16033 MEMB     120      POPS     H16Y     HAL3     0.900000E-01   1.00800           0
     16034 MEMB     120      POPS     H16Z     HAL3     0.900000E-01   1.00800           0
     16035 MEMB     121      POPC     N        NTL     -0.600000       14.0070           0
     16036 MEMB     121      POPC     C12      CTL2    -0.100000       12.0110           0
     16037 MEMB     121      POPC     H12A     HL       0.250000       1.00800           0
     16038 MEMB     121      POPC     H12B     HL       0.250000       1.00800           0
     16039 MEMB     121      POPC     C13      CTL5    -0.350000       12.0110           0
     16040 MEMB     121      POPC     H13A     HL       0.250000       1.00800           0
     16041 MEMB     121      POPC     H13B     HL       0.250000       1.00800           0
     16042 MEMB     121      POPC     H13C     HL       0.250000       1.00800           0
     16043 MEMB     121      POPC     C14      CTL5    -0.350000       12.0110           0
     16044 MEMB     121      POPC     H14A     HL       0.250000       1.00800           0
     16045 MEMB     121      POPC     H14B     HL       0.250000       1.00800           0
     16046 MEMB     121      POPC     H14C     HL       0.250000       1.00800           0
     16047 MEMB     121      POPC     C15      CTL5    -0.350000       12.0110           0
     16048 MEMB     121      POPC     H15A     HL       0.250000       1.00800           0
     16049 MEMB     121      POPC     H15B     HL       0.250000       1.00800           0
     16050 MEMB     121      POPC     H15C     HL       0.250000       1.00800           0
     16051 MEMB     121      POPC     C11      CTL2    -0.800000E-01   12.0110           0
     16052 MEMB     121      POPC     H11A     HAL2     0.900000E-01   1.00800           0
     16053 MEMB     121      POPC     H11B     HAL2     0.900000E-01   1.00800           0
     16054 MEMB     121      POPC     P        PL       1.500000       30.9740           0
     16055 MEMB     121      POPC     O13      O2L     -0.780000       15.9994           0
     16056 MEMB     121      POPC     O14      O2L     -0.780000       15.9994           0
     16057 MEMB     121      POPC     O12      OSLP    -0.570000       15.9994           0
     16058 MEMB     121      POPC     O11      OSLP    -0.570000       15.9994           0
     16059 MEMB     121      POPC     C1       CTL2    -0.800000E-01   12.0110           0
     16060 MEMB     121      POPC     HA       HAL2     0.900000E-01   1.00800           0
     16061 MEMB     121      POPC     HB       HAL2     0.900000E-01   1.00800           0
     16062 MEMB     121      POPC     C2       CTL1     0.170000       12.0110           0
     16063 MEMB     121      POPC     HS       HAL1     0.900000E-01   1.00800           0
     16064 MEMB     121      POPC     O21      OSL     -0.490000       15.9994           0
     16065 MEMB     121      POPC     C21      CL       0.900000       12.0110           0
     16066 MEMB     121      POPC     O22      OBL     -0.630000       15.9994           0
     16067 MEMB     121      POPC     C22      CTL2    -0.220000       12.0110           0
     16068 MEMB     121      POPC     H2R      HAL2     0.900000E-01   1.00800           0
     16069 MEMB     121      POPC     H2S      HAL2     0.900000E-01   1.00800           0
     16070 MEMB     121      POPC     C3       CTL2     0.800000E-01   12.0110           0
     16071 MEMB     121      POPC     HX       HAL2     0.900000E-01   1.00800           0
     16072 MEMB     121      POPC     HY       HAL2     0.900000E-01   1.00800           0
     16073 MEMB     121      POPC     O31      OSL     -0.490000       15.9994           0
     16074 MEMB     121      POPC     C31      CL       0.900000       12.0110           0
     16075 MEMB     121      POPC     O32      OBL     -0.630000       15.9994           0
     16076 MEMB     121      POPC     C32      CTL2    -0.220000       12.0110           0
     16077 MEMB     121      POPC     H2X      HAL2     0.900000E-01   1.00800           0
     16078 MEMB     121      POPC     H2Y      HAL2     0.900000E-01   1.00800           0
     16079 MEMB     121      POPC     C23      CTL2    -0.180000       12.0110           0
     16080 MEMB     121      POPC     H3R      HAL2     0.900000E-01   1.00800           0
     16081 MEMB     121      POPC     H3S      HAL2     0.900000E-01   1.00800           0
     16082 MEMB     121      POPC     C24      CTL2    -0.180000       12.0110           0
     16083 MEMB     121      POPC     H4R      HAL2     0.900000E-01   1.00800           0
     16084 MEMB     121      POPC     H4S      HAL2     0.900000E-01   1.00800           0
     16085 MEMB     121      POPC     C25      CTL2    -0.180000       12.0110           0
     16086 MEMB     121      POPC     H5R      HAL2     0.900000E-01   1.00800           0
     16087 MEMB     121      POPC     H5S      HAL2     0.900000E-01   1.00800           0
     16088 MEMB     121      POPC     C26      CTL2    -0.180000       12.0110           0
     16089 MEMB     121      POPC     H6R      HAL2     0.900000E-01   1.00800           0
     16090 MEMB     121      POPC     H6S      HAL2     0.900000E-01   1.00800           0
     16091 MEMB     121      POPC     C27      CTL2    -0.180000       12.0110           0
     16092 MEMB     121      POPC     H7R      HAL2     0.900000E-01   1.00800           0
     16093 MEMB     121      POPC     H7S      HAL2     0.900000E-01   1.00800           0
     16094 MEMB     121      POPC     C28      CTL2    -0.180000       12.0110           0
     16095 MEMB     121      POPC     H8R      HAL2     0.900000E-01   1.00800           0
     16096 MEMB     121      POPC     H8S      HAL2     0.900000E-01   1.00800           0
     16097 MEMB     121      POPC     C29      CEL1    -0.150000       12.0110           0
     16098 MEMB     121      POPC     H91      HEL1     0.150000       1.00800           0
     16099 MEMB     121      POPC     C210     CEL1    -0.150000       12.0110           0
     16100 MEMB     121      POPC     H101     HEL1     0.150000       1.00800           0
     16101 MEMB     121      POPC     C211     CTL2    -0.180000       12.0110           0
     16102 MEMB     121      POPC     H11R     HAL2     0.900000E-01   1.00800           0
     16103 MEMB     121      POPC     H11S     HAL2     0.900000E-01   1.00800           0
     16104 MEMB     121      POPC     C212     CTL2    -0.180000       12.0110           0
     16105 MEMB     121      POPC     H12R     HAL2     0.900000E-01   1.00800           0
     16106 MEMB     121      POPC     H12S     HAL2     0.900000E-01   1.00800           0
     16107 MEMB     121      POPC     C213     CTL2    -0.180000       12.0110           0
     16108 MEMB     121      POPC     H13R     HAL2     0.900000E-01   1.00800           0
     16109 MEMB     121      POPC     H13S     HAL2     0.900000E-01   1.00800           0
     16110 MEMB     121      POPC     C214     CTL2    -0.180000       12.0110           0
     16111 MEMB     121      POPC     H14R     HAL2     0.900000E-01   1.00800           0
     16112 MEMB     121      POPC     H14S     HAL2     0.900000E-01   1.00800           0
     16113 MEMB     121      POPC     C215     CTL2    -0.180000       12.0110           0
     16114 MEMB     121      POPC     H15R     HAL2     0.900000E-01   1.00800           0
     16115 MEMB     121      POPC     H15S     HAL2     0.900000E-01   1.00800           0
     16116 MEMB     121      POPC     C216     CTL2    -0.180000       12.0110           0
     16117 MEMB     121      POPC     H16R     HAL2     0.900000E-01   1.00800           0
     16118 MEMB     121      POPC     H16S     HAL2     0.900000E-01   1.00800           0
     16119 MEMB     121      POPC     C217     CTL2    -0.180000       12.0110           0
     16120 MEMB     121      POPC     H17R     HAL2     0.900000E-01   1.00800           0
     16121 MEMB     121      POPC     H17S     HAL2     0.900000E-01   1.00800           0
     16122 MEMB     121      POPC     C218     CTL3    -0.270000       12.0110           0
     16123 MEMB     121      POPC     H18R     HAL3     0.900000E-01   1.00800           0
     16124 MEMB     121      POPC     H18S     HAL3     0.900000E-01   1.00800           0
     16125 MEMB     121      POPC     H18T     HAL3     0.900000E-01   1.00800           0
     16126 MEMB     121      POPC     C33      CTL2    -0.180000       12.0110           0
     16127 MEMB     121      POPC     H3X      HAL2     0.900000E-01   1.00800           0
     16128 MEMB     121      POPC     H3Y      HAL2     0.900000E-01   1.00800           0
     16129 MEMB     121      POPC     C34      CTL2    -0.180000       12.0110           0
     16130 MEMB     121      POPC     H4X      HAL2     0.900000E-01   1.00800           0
     16131 MEMB     121      POPC     H4Y      HAL2     0.900000E-01   1.00800           0
     16132 MEMB     121      POPC     C35      CTL2    -0.180000       12.0110           0
     16133 MEMB     121      POPC     H5X      HAL2     0.900000E-01   1.00800           0
     16134 MEMB     121      POPC     H5Y      HAL2     0.900000E-01   1.00800           0
     16135 MEMB     121      POPC     C36      CTL2    -0.180000       12.0110           0
     16136 MEMB     121      POPC     H6X      HAL2     0.900000E-01   1.00800           0
     16137 MEMB     121      POPC     H6Y      HAL2     0.900000E-01   1.00800           0
     16138 MEMB     121      POPC     C37      CTL2    -0.180000       12.0110           0
     16139 MEMB     121      POPC     H7X      HAL2     0.900000E-01   1.00800           0
     16140 MEMB     121      POPC     H7Y      HAL2     0.900000E-01   1.00800           0
     16141 MEMB     121      POPC     C38      CTL2    -0.180000       12.0110           0
     16142 MEMB     121      POPC     H8X      HAL2     0.900000E-01   1.00800           0
     16143 MEMB     121      POPC     H8Y      HAL2     0.900000E-01   1.00800           0
     16144 MEMB     121      POPC     C39      CTL2    -0.180000       12.0110           0
     16145 MEMB     121      POPC     H9X      HAL2     0.900000E-01   1.00800           0
     16146 MEMB     121      POPC     H9Y      HAL2     0.900000E-01   1.00800           0
     16147 MEMB     121      POPC     C310     CTL2    -0.180000       12.0110           0
     16148 MEMB     121      POPC     H10X     HAL2     0.900000E-01   1.00800           0
     16149 MEMB     121      POPC     H10Y     HAL2     0.900000E-01   1.00800           0
     16150 MEMB     121      POPC     C311     CTL2    -0.180000       12.0110           0
     16151 MEMB     121      POPC     H11X     HAL2     0.900000E-01   1.00800           0
     16152 MEMB     121      POPC     H11Y     HAL2     0.900000E-01   1.00800           0
     16153 MEMB     121      POPC     C312     CTL2    -0.180000       12.0110           0
     16154 MEMB     121      POPC     H12X     HAL2     0.900000E-01   1.00800           0
     16155 MEMB     121      POPC     H12Y     HAL2     0.900000E-01   1.00800           0
     16156 MEMB     121      POPC     C313     CTL2    -0.180000       12.0110           0
     16157 MEMB     121      POPC     H13X     HAL2     0.900000E-01   1.00800           0
     16158 MEMB     121      POPC     H13Y     HAL2     0.900000E-01   1.00800           0
     16159 MEMB     121      POPC     C314     CTL2    -0.180000       12.0110           0
     16160 MEMB     121      POPC     H14X     HAL2     0.900000E-01   1.00800           0
     16161 MEMB     121      POPC     H14Y     HAL2     0.900000E-01   1.00800           0
     16162 MEMB     121      POPC     C315     CTL2    -0.180000       12.0110           0
     16163 MEMB     121      POPC     H15X     HAL2     0.900000E-01   1.00800           0
     16164 MEMB     121      POPC     H15Y     HAL2     0.900000E-01   1.00800           0
     16165 MEMB     121      POPC     C316     CTL3    -0.270000       12.0110           0
     16166 MEMB     121      POPC     H16X     HAL3     0.900000E-01   1.00800           0
     16167 MEMB     121      POPC     H16Y     HAL3     0.900000E-01   1.00800           0
     16168 MEMB     121      POPC     H16Z     HAL3     0.900000E-01   1.00800           0
     16169 MEMB     122      POPC     N        NTL     -0.600000       14.0070           0
     16170 MEMB     122      POPC     C12      CTL2    -0.100000       12.0110           0
     16171 MEMB     122      POPC     H12A     HL       0.250000       1.00800           0
     16172 MEMB     122      POPC     H12B     HL       0.250000       1.00800           0
     16173 MEMB     122      POPC     C13      CTL5    -0.350000       12.0110           0
     16174 MEMB     122      POPC     H13A     HL       0.250000       1.00800           0
     16175 MEMB     122      POPC     H13B     HL       0.250000       1.00800           0
     16176 MEMB     122      POPC     H13C     HL       0.250000       1.00800           0
     16177 MEMB     122      POPC     C14      CTL5    -0.350000       12.0110           0
     16178 MEMB     122      POPC     H14A     HL       0.250000       1.00800           0
     16179 MEMB     122      POPC     H14B     HL       0.250000       1.00800           0
     16180 MEMB     122      POPC     H14C     HL       0.250000       1.00800           0
     16181 MEMB     122      POPC     C15      CTL5    -0.350000       12.0110           0
     16182 MEMB     122      POPC     H15A     HL       0.250000       1.00800           0
     16183 MEMB     122      POPC     H15B     HL       0.250000       1.00800           0
     16184 MEMB     122      POPC     H15C     HL       0.250000       1.00800           0
     16185 MEMB     122      POPC     C11      CTL2    -0.800000E-01   12.0110           0
     16186 MEMB     122      POPC     H11A     HAL2     0.900000E-01   1.00800           0
     16187 MEMB     122      POPC     H11B     HAL2     0.900000E-01   1.00800           0
     16188 MEMB     122      POPC     P        PL       1.500000       30.9740           0
     16189 MEMB     122      POPC     O13      O2L     -0.780000       15.9994           0
     16190 MEMB     122      POPC     O14      O2L     -0.780000       15.9994           0
     16191 MEMB     122      POPC     O12      OSLP    -0.570000       15.9994           0
     16192 MEMB     122      POPC     O11      OSLP    -0.570000       15.9994           0
     16193 MEMB     122      POPC     C1       CTL2    -0.800000E-01   12.0110           0
     16194 MEMB     122      POPC     HA       HAL2     0.900000E-01   1.00800           0
     16195 MEMB     122      POPC     HB       HAL2     0.900000E-01   1.00800           0
     16196 MEMB     122      POPC     C2       CTL1     0.170000       12.0110           0
     16197 MEMB     122      POPC     HS       HAL1     0.900000E-01   1.00800           0
     16198 MEMB     122      POPC     O21      OSL     -0.490000       15.9994           0
     16199 MEMB     122      POPC     C21      CL       0.900000       12.0110           0
     16200 MEMB     122      POPC     O22      OBL     -0.630000       15.9994           0
     16201 MEMB     122      POPC     C22      CTL2    -0.220000       12.0110           0
     16202 MEMB     122      POPC     H2R      HAL2     0.900000E-01   1.00800           0
     16203 MEMB     122      POPC     H2S      HAL2     0.900000E-01   1.00800           0
     16204 MEMB     122      POPC     C3       CTL2     0.800000E-01   12.0110           0
     16205 MEMB     122      POPC     HX       HAL2     0.900000E-01   1.00800           0
     16206 MEMB     122      POPC     HY       HAL2     0.900000E-01   1.00800           0
     16207 MEMB     122      POPC     O31      OSL     -0.490000       15.9994           0
     16208 MEMB     122      POPC     C31      CL       0.900000       12.0110           0
     16209 MEMB     122      POPC     O32      OBL     -0.630000       15.9994           0
     16210 MEMB     122      POPC     C32      CTL2    -0.220000       12.0110           0
     16211 MEMB     122      POPC     H2X      HAL2     0.900000E-01   1.00800           0
     16212 MEMB     122      POPC     H2Y      HAL2     0.900000E-01   1.00800           0
     16213 MEMB     122      POPC     C23      CTL2    -0.180000       12.0110           0
     16214 MEMB     122      POPC     H3R      HAL2     0.900000E-01   1.00800           0
     16215 MEMB     122      POPC     H3S      HAL2     0.900000E-01   1.00800           0
     16216 MEMB     122      POPC     C24      CTL2    -0.180000       12.0110           0
     16217 MEMB     122      POPC     H4R      HAL2     0.900000E-01   1.00800           0
     16218 MEMB     122      POPC     H4S      HAL2     0.900000E-01   1.00800           0
     16219 MEMB     122      POPC     C25      CTL2    -0.180000       12.0110           0
     16220 MEMB     122      POPC     H5R      HAL2     0.900000E-01   1.00800           0
     16221 MEMB     122      POPC     H5S      HAL2     0.900000E-01   1.00800           0
     16222 MEMB     122      POPC     C26      CTL2    -0.180000       12.0110           0
     16223 MEMB     122      POPC     H6R      HAL2     0.900000E-01   1.00800           0
     16224 MEMB     122      POPC     H6S      HAL2     0.900000E-01   1.00800           0
     16225 MEMB     122      POPC     C27      CTL2    -0.180000       12.0110           0
     16226 MEMB     122      POPC     H7R      HAL2     0.900000E-01   1.00800           0
     16227 MEMB     122      POPC     H7S      HAL2     0.900000E-01   1.00800           0
     16228 MEMB     122      POPC     C28      CTL2    -0.180000       12.0110           0
     16229 MEMB     122      POPC     H8R      HAL2     0.900000E-01   1.00800           0
     16230 MEMB     122      POPC     H8S      HAL2     0.900000E-01   1.00800           0
     16231 MEMB     122      POPC     C29      CEL1    -0.150000       12.0110           0
     16232 MEMB     122      POPC     H91      HEL1     0.150000       1.00800           0
     16233 MEMB     122      POPC     C210     CEL1    -0.150000       12.0110           0
     16234 MEMB     122      POPC     H101     HEL1     0.150000       1.00800           0
     16235 MEMB     122      POPC     C211     CTL2    -0.180000       12.0110           0
     16236 MEMB     122      POPC     H11R     HAL2     0.900000E-01   1.00800           0
     16237 MEMB     122      POPC     H11S     HAL2     0.900000E-01   1.00800           0
     16238 MEMB     122      POPC     C212     CTL2    -0.180000       12.0110           0
     16239 MEMB     122      POPC     H12R     HAL2     0.900000E-01   1.00800           0
     16240 MEMB     122      POPC     H12S     HAL2     0.900000E-01   1.00800           0
     16241 MEMB     122      POPC     C213     CTL2    -0.180000       12.0110           0
     16242 MEMB     122      POPC     H13R     HAL2     0.900000E-01   1.00800           0
     16243 MEMB     122      POPC     H13S     HAL2     0.900000E-01   1.00800           0
     16244 MEMB     122      POPC     C214     CTL2    -0.180000       12.0110           0
     16245 MEMB     122      POPC     H14R     HAL2     0.900000E-01   1.00800           0
     16246 MEMB     122      POPC     H14S     HAL2     0.900000E-01   1.00800           0
     16247 MEMB     122      POPC     C215     CTL2    -0.180000       12.0110           0
     16248 MEMB     122      POPC     H15R     HAL2     0.900000E-01   1.00800           0
     16249 MEMB     122      POPC     H15S     HAL2     0.900000E-01   1.00800           0
     16250 MEMB     122      POPC     C216     CTL2    -0.180000       12.0110           0
     16251 MEMB     122      POPC     H16R     HAL2     0.900000E-01   1.00800           0
     16252 MEMB     122      POPC     H16S     HAL2     0.900000E-01   1.00800           0
     16253 MEMB     122      POPC     C217     CTL2    -0.180000       12.0110           0
     16254 MEMB     122      POPC     H17R     HAL2     0.900000E-01   1.00800           0
     16255 MEMB     122      POPC     H17S     HAL2     0.900000E-01   1.00800           0
     16256 MEMB     122      POPC     C218     CTL3    -0.270000       12.0110           0
     16257 MEMB     122      POPC     H18R     HAL3     0.900000E-01   1.00800           0
     16258 MEMB     122      POPC     H18S     HAL3     0.900000E-01   1.00800           0
     16259 MEMB     122      POPC     H18T     HAL3     0.900000E-01   1.00800           0
     16260 MEMB     122      POPC     C33      CTL2    -0.180000       12.0110           0
     16261 MEMB     122      POPC     H3X      HAL2     0.900000E-01   1.00800           0
     16262 MEMB     122      POPC     H3Y      HAL2     0.900000E-01   1.00800           0
     16263 MEMB     122      POPC     C34      CTL2    -0.180000       12.0110           0
     16264 MEMB     122      POPC     H4X      HAL2     0.900000E-01   1.00800           0
     16265 MEMB     122      POPC     H4Y      HAL2     0.900000E-01   1.00800           0
     16266 MEMB     122      POPC     C35      CTL2    -0.180000       12.0110           0
     16267 MEMB     122      POPC     H5X      HAL2     0.900000E-01   1.00800           0
     16268 MEMB     122      POPC     H5Y      HAL2     0.900000E-01   1.00800           0
     16269 MEMB     122      POPC     C36      CTL2    -0.180000       12.0110           0
     16270 MEMB     122      POPC     H6X      HAL2     0.900000E-01   1.00800           0
     16271 MEMB     122      POPC     H6Y      HAL2     0.900000E-01   1.00800           0
     16272 MEMB     122      POPC     C37      CTL2    -0.180000       12.0110           0
     16273 MEMB     122      POPC     H7X      HAL2     0.900000E-01   1.00800           0
     16274 MEMB     122      POPC     H7Y      HAL2     0.900000E-01   1.00800           0
     16275 MEMB     122      POPC     C38      CTL2    -0.180000       12.0110           0
     16276 MEMB     122      POPC     H8X      HAL2     0.900000E-01   1.00800           0
     16277 MEMB     122      POPC     H8Y      HAL2     0.900000E-01   1.00800           0
     16278 MEMB     122      POPC     C39      CTL2    -0.180000       12.0110           0
     16279 MEMB     122      POPC     H9X      HAL2     0.900000E-01   1.00800           0
     16280 MEMB     122      POPC     H9Y      HAL2     0.900000E-01   1.00800           0
     16281 MEMB     122      POPC     C310     CTL2    -0.180000       12.0110           0
     16282 MEMB     122      POPC     H10X     HAL2     0.900000E-01   1.00800           0
     16283 MEMB     122      POPC     H10Y     HAL2     0.900000E-01   1.00800           0
     16284 MEMB     122      POPC     C311     CTL2    -0.180000       12.0110           0
     16285 MEMB     122      POPC     H11X     HAL2     0.900000E-01   1.00800           0
     16286 MEMB     122      POPC     H11Y     HAL2     0.900000E-01   1.00800           0
     16287 MEMB     122      POPC     C312     CTL2    -0.180000       12.0110           0
     16288 MEMB     122      POPC     H12X     HAL2     0.900000E-01   1.00800           0
     16289 MEMB     122      POPC     H12Y     HAL2     0.900000E-01   1.00800           0
     16290 MEMB     122      POPC     C313     CTL2    -0.180000       12.0110           0
     16291 MEMB     122      POPC     H13X     HAL2     0.900000E-01   1.00800           0
     16292 MEMB     122      POPC     H13Y     HAL2     0.900000E-01   1.00800           0
     16293 MEMB     122      POPC     C314     CTL2    -0.180000       12.0110           0
     16294 MEMB     122      POPC     H14X     HAL2     0.900000E-01   1.00800           0
     16295 MEMB     122      POPC     H14Y     HAL2     0.900000E-01   1.00800           0
     16296 MEMB     122      POPC     C315     CTL2    -0.180000       12.0110           0
     16297 MEMB     122      POPC     H15X     HAL2     0.900000E-01   1.00800           0
     16298 MEMB     122      POPC     H15Y     HAL2     0.900000E-01   1.00800           0
     16299 MEMB     122      POPC     C316     CTL3    -0.270000       12.0110           0
     16300 MEMB     122      POPC     H16X     HAL3     0.900000E-01   1.00800           0
     16301 MEMB     122      POPC     H16Y     HAL3     0.900000E-01   1.00800           0
     16302 MEMB     122      POPC     H16Z     HAL3     0.900000E-01   1.00800           0
     16303 MEMB     123      POPC     N        NTL     -0.600000       14.0070           0
     16304 MEMB     123      POPC     C12      CTL2    -0.100000       12.0110           0
     16305 MEMB     123      POPC     H12A     HL       0.250000       1.00800           0
     16306 MEMB     123      POPC     H12B     HL       0.250000       1.00800           0
     16307 MEMB     123      POPC     C13      CTL5    -0.350000       12.0110           0
     16308 MEMB     123      POPC     H13A     HL       0.250000       1.00800           0
     16309 MEMB     123      POPC     H13B     HL       0.250000       1.00800           0
     16310 MEMB     123      POPC     H13C     HL       0.250000       1.00800           0
     16311 MEMB     123      POPC     C14      CTL5    -0.350000       12.0110           0
     16312 MEMB     123      POPC     H14A     HL       0.250000       1.00800           0
     16313 MEMB     123      POPC     H14B     HL       0.250000       1.00800           0
     16314 MEMB     123      POPC     H14C     HL       0.250000       1.00800           0
     16315 MEMB     123      POPC     C15      CTL5    -0.350000       12.0110           0
     16316 MEMB     123      POPC     H15A     HL       0.250000       1.00800           0
     16317 MEMB     123      POPC     H15B     HL       0.250000       1.00800           0
     16318 MEMB     123      POPC     H15C     HL       0.250000       1.00800           0
     16319 MEMB     123      POPC     C11      CTL2    -0.800000E-01   12.0110           0
     16320 MEMB     123      POPC     H11A     HAL2     0.900000E-01   1.00800           0
     16321 MEMB     123      POPC     H11B     HAL2     0.900000E-01   1.00800           0
     16322 MEMB     123      POPC     P        PL       1.500000       30.9740           0
     16323 MEMB     123      POPC     O13      O2L     -0.780000       15.9994           0
     16324 MEMB     123      POPC     O14      O2L     -0.780000       15.9994           0
     16325 MEMB     123      POPC     O12      OSLP    -0.570000       15.9994           0
     16326 MEMB     123      POPC     O11      OSLP    -0.570000       15.9994           0
     16327 MEMB     123      POPC     C1       CTL2    -0.800000E-01   12.0110           0
     16328 MEMB     123      POPC     HA       HAL2     0.900000E-01   1.00800           0
     16329 MEMB     123      POPC     HB       HAL2     0.900000E-01   1.00800           0
     16330 MEMB     123      POPC     C2       CTL1     0.170000       12.0110           0
     16331 MEMB     123      POPC     HS       HAL1     0.900000E-01   1.00800           0
     16332 MEMB     123      POPC     O21      OSL     -0.490000       15.9994           0
     16333 MEMB     123      POPC     C21      CL       0.900000       12.0110           0
     16334 MEMB     123      POPC     O22      OBL     -0.630000       15.9994           0
     16335 MEMB     123      POPC     C22      CTL2    -0.220000       12.0110           0
     16336 MEMB     123      POPC     H2R      HAL2     0.900000E-01   1.00800           0
     16337 MEMB     123      POPC     H2S      HAL2     0.900000E-01   1.00800           0
     16338 MEMB     123      POPC     C3       CTL2     0.800000E-01   12.0110           0
     16339 MEMB     123      POPC     HX       HAL2     0.900000E-01   1.00800           0
     16340 MEMB     123      POPC     HY       HAL2     0.900000E-01   1.00800           0
     16341 MEMB     123      POPC     O31      OSL     -0.490000       15.9994           0
     16342 MEMB     123      POPC     C31      CL       0.900000       12.0110           0
     16343 MEMB     123      POPC     O32      OBL     -0.630000       15.9994           0
     16344 MEMB     123      POPC     C32      CTL2    -0.220000       12.0110           0
     16345 MEMB     123      POPC     H2X      HAL2     0.900000E-01   1.00800           0
     16346 MEMB     123      POPC     H2Y      HAL2     0.900000E-01   1.00800           0
     16347 MEMB     123      POPC     C23      CTL2    -0.180000       12.0110           0
     16348 MEMB     123      POPC     H3R      HAL2     0.900000E-01   1.00800           0
     16349 MEMB     123      POPC     H3S      HAL2     0.900000E-01   1.00800           0
     16350 MEMB     123      POPC     C24      CTL2    -0.180000       12.0110           0
     16351 MEMB     123      POPC     H4R      HAL2     0.900000E-01   1.00800           0
     16352 MEMB     123      POPC     H4S      HAL2     0.900000E-01   1.00800           0
     16353 MEMB     123      POPC     C25      CTL2    -0.180000       12.0110           0
     16354 MEMB     123      POPC     H5R      HAL2     0.900000E-01   1.00800           0
     16355 MEMB     123      POPC     H5S      HAL2     0.900000E-01   1.00800           0
     16356 MEMB     123      POPC     C26      CTL2    -0.180000       12.0110           0
     16357 MEMB     123      POPC     H6R      HAL2     0.900000E-01   1.00800           0
     16358 MEMB     123      POPC     H6S      HAL2     0.900000E-01   1.00800           0
     16359 MEMB     123      POPC     C27      CTL2    -0.180000       12.0110           0
     16360 MEMB     123      POPC     H7R      HAL2     0.900000E-01   1.00800           0
     16361 MEMB     123      POPC     H7S      HAL2     0.900000E-01   1.00800           0
     16362 MEMB     123      POPC     C28      CTL2    -0.180000       12.0110           0
     16363 MEMB     123      POPC     H8R      HAL2     0.900000E-01   1.00800           0
     16364 MEMB     123      POPC     H8S      HAL2     0.900000E-01   1.00800           0
     16365 MEMB     123      POPC     C29      CEL1    -0.150000       12.0110           0
     16366 MEMB     123      POPC     H91      HEL1     0.150000       1.00800           0
     16367 MEMB     123      POPC     C210     CEL1    -0.150000       12.0110           0
     16368 MEMB     123      POPC     H101     HEL1     0.150000       1.00800           0
     16369 MEMB     123      POPC     C211     CTL2    -0.180000       12.0110           0
     16370 MEMB     123      POPC     H11R     HAL2     0.900000E-01   1.00800           0
     16371 MEMB     123      POPC     H11S     HAL2     0.900000E-01   1.00800           0
     16372 MEMB     123      POPC     C212     CTL2    -0.180000       12.0110           0
     16373 MEMB     123      POPC     H12R     HAL2     0.900000E-01   1.00800           0
     16374 MEMB     123      POPC     H12S     HAL2     0.900000E-01   1.00800           0
     16375 MEMB     123      POPC     C213     CTL2    -0.180000       12.0110           0
     16376 MEMB     123      POPC     H13R     HAL2     0.900000E-01   1.00800           0
     16377 MEMB     123      POPC     H13S     HAL2     0.900000E-01   1.00800           0
     16378 MEMB     123      POPC     C214     CTL2    -0.180000       12.0110           0
     16379 MEMB     123      POPC     H14R     HAL2     0.900000E-01   1.00800           0
     16380 MEMB     123      POPC     H14S     HAL2     0.900000E-01   1.00800           0
     16381 MEMB     123      POPC     C215     CTL2    -0.180000       12.0110           0
     16382 MEMB     123      POPC     H15R     HAL2     0.900000E-01   1.00800           0
     16383 MEMB     123      POPC     H15S     HAL2     0.900000E-01   1.00800           0
     16384 MEMB     123      POPC     C216     CTL2    -0.180000       12.0110           0
     16385 MEMB     123      POPC     H16R     HAL2     0.900000E-01   1.00800           0
     16386 MEMB     123      POPC     H16S     HAL2     0.900000E-01   1.00800           0
     16387 MEMB     123      POPC     C217     CTL2    -0.180000       12.0110           0
     16388 MEMB     123      POPC     H17R     HAL2     0.900000E-01   1.00800           0
     16389 MEMB     123      POPC     H17S     HAL2     0.900000E-01   1.00800           0
     16390 MEMB     123      POPC     C218     CTL3    -0.270000       12.0110           0
     16391 MEMB     123      POPC     H18R     HAL3     0.900000E-01   1.00800           0
     16392 MEMB     123      POPC     H18S     HAL3     0.900000E-01   1.00800           0
     16393 MEMB     123      POPC     H18T     HAL3     0.900000E-01   1.00800           0
     16394 MEMB     123      POPC     C33      CTL2    -0.180000       12.0110           0
     16395 MEMB     123      POPC     H3X      HAL2     0.900000E-01   1.00800           0
     16396 MEMB     123      POPC     H3Y      HAL2     0.900000E-01   1.00800           0
     16397 MEMB     123      POPC     C34      CTL2    -0.180000       12.0110           0
     16398 MEMB     123      POPC     H4X      HAL2     0.900000E-01   1.00800           0
     16399 MEMB     123      POPC     H4Y      HAL2     0.900000E-01   1.00800           0
     16400 MEMB     123      POPC     C35      CTL2    -0.180000       12.0110           0
     16401 MEMB     123      POPC     H5X      HAL2     0.900000E-01   1.00800           0
     16402 MEMB     123      POPC     H5Y      HAL2     0.900000E-01   1.00800           0
     16403 MEMB     123      POPC     C36      CTL2    -0.180000       12.0110           0
     16404 MEMB     123      POPC     H6X      HAL2     0.900000E-01   1.00800           0
     16405 MEMB     123      POPC     H6Y      HAL2     0.900000E-01   1.00800           0
     16406 MEMB     123      POPC     C37      CTL2    -0.180000       12.0110           0
     16407 MEMB     123      POPC     H7X      HAL2     0.900000E-01   1.00800           0
     16408 MEMB     123      POPC     H7Y      HAL2     0.900000E-01   1.00800           0
     16409 MEMB     123      POPC     C38      CTL2    -0.180000       12.0110           0
     16410 MEMB     123      POPC     H8X      HAL2     0.900000E-01   1.00800           0
     16411 MEMB     123      POPC     H8Y      HAL2     0.900000E-01   1.00800           0
     16412 MEMB     123      POPC     C39      CTL2    -0.180000       12.0110           0
     16413 MEMB     123      POPC     H9X      HAL2     0.900000E-01   1.00800           0
     16414 MEMB     123      POPC     H9Y      HAL2     0.900000E-01   1.00800           0
     16415 MEMB     123      POPC     C310     CTL2    -0.180000       12.0110           0
     16416 MEMB     123      POPC     H10X     HAL2     0.900000E-01   1.00800           0
     16417 MEMB     123      POPC     H10Y     HAL2     0.900000E-01   1.00800           0
     16418 MEMB     123      POPC     C311     CTL2    -0.180000       12.0110           0
     16419 MEMB     123      POPC     H11X     HAL2     0.900000E-01   1.00800           0
     16420 MEMB     123      POPC     H11Y     HAL2     0.900000E-01   1.00800           0
     16421 MEMB     123      POPC     C312     CTL2    -0.180000       12.0110           0
     16422 MEMB     123      POPC     H12X     HAL2     0.900000E-01   1.00800           0
     16423 MEMB     123      POPC     H12Y     HAL2     0.900000E-01   1.00800           0
     16424 MEMB     123      POPC     C313     CTL2    -0.180000       12.0110           0
     16425 MEMB     123      POPC     H13X     HAL2     0.900000E-01   1.00800           0
     16426 MEMB     123      POPC     H13Y     HAL2     0.900000E-01   1.00800           0
     16427 MEMB     123      POPC     C314     CTL2    -0.180000       12.0110           0
     16428 MEMB     123      POPC     H14X     HAL2     0.900000E-01   1.00800           0
     16429 MEMB     123      POPC     H14Y     HAL2     0.900000E-01   1.00800           0
     16430 MEMB     123      POPC     C315     CTL2    -0.180000       12.0110           0
     16431 MEMB     123      POPC     H15X     HAL2     0.900000E-01   1.00800           0
     16432 MEMB     123      POPC     H15Y     HAL2     0.900000E-01   1.00800           0
     16433 MEMB     123      POPC     C316     CTL3    -0.270000       12.0110           0
     16434 MEMB     123      POPC     H16X     HAL3     0.900000E-01   1.00800           0
     16435 MEMB     123      POPC     H16Y     HAL3     0.900000E-01   1.00800           0
     16436 MEMB     123      POPC     H16Z     HAL3     0.900000E-01   1.00800           0
     16437 MEMB     124      POPC     N        NTL     -0.600000       14.0070           0
     16438 MEMB     124      POPC     C12      CTL2    -0.100000       12.0110           0
     16439 MEMB     124      POPC     H12A     HL       0.250000       1.00800           0
     16440 MEMB     124      POPC     H12B     HL       0.250000       1.00800           0
     16441 MEMB     124      POPC     C13      CTL5    -0.350000       12.0110           0
     16442 MEMB     124      POPC     H13A     HL       0.250000       1.00800           0
     16443 MEMB     124      POPC     H13B     HL       0.250000       1.00800           0
     16444 MEMB     124      POPC     H13C     HL       0.250000       1.00800           0
     16445 MEMB     124      POPC     C14      CTL5    -0.350000       12.0110           0
     16446 MEMB     124      POPC     H14A     HL       0.250000       1.00800           0
     16447 MEMB     124      POPC     H14B     HL       0.250000       1.00800           0
     16448 MEMB     124      POPC     H14C     HL       0.250000       1.00800           0
     16449 MEMB     124      POPC     C15      CTL5    -0.350000       12.0110           0
     16450 MEMB     124      POPC     H15A     HL       0.250000       1.00800           0
     16451 MEMB     124      POPC     H15B     HL       0.250000       1.00800           0
     16452 MEMB     124      POPC     H15C     HL       0.250000       1.00800           0
     16453 MEMB     124      POPC     C11      CTL2    -0.800000E-01   12.0110           0
     16454 MEMB     124      POPC     H11A     HAL2     0.900000E-01   1.00800           0
     16455 MEMB     124      POPC     H11B     HAL2     0.900000E-01   1.00800           0
     16456 MEMB     124      POPC     P        PL       1.500000       30.9740           0
     16457 MEMB     124      POPC     O13      O2L     -0.780000       15.9994           0
     16458 MEMB     124      POPC     O14      O2L     -0.780000       15.9994           0
     16459 MEMB     124      POPC     O12      OSLP    -0.570000       15.9994           0
     16460 MEMB     124      POPC     O11      OSLP    -0.570000       15.9994           0
     16461 MEMB     124      POPC     C1       CTL2    -0.800000E-01   12.0110           0
     16462 MEMB     124      POPC     HA       HAL2     0.900000E-01   1.00800           0
     16463 MEMB     124      POPC     HB       HAL2     0.900000E-01   1.00800           0
     16464 MEMB     124      POPC     C2       CTL1     0.170000       12.0110           0
     16465 MEMB     124      POPC     HS       HAL1     0.900000E-01   1.00800           0
     16466 MEMB     124      POPC     O21      OSL     -0.490000       15.9994           0
     16467 MEMB     124      POPC     C21      CL       0.900000       12.0110           0
     16468 MEMB     124      POPC     O22      OBL     -0.630000       15.9994           0
     16469 MEMB     124      POPC     C22      CTL2    -0.220000       12.0110           0
     16470 MEMB     124      POPC     H2R      HAL2     0.900000E-01   1.00800           0
     16471 MEMB     124      POPC     H2S      HAL2     0.900000E-01   1.00800           0
     16472 MEMB     124      POPC     C3       CTL2     0.800000E-01   12.0110           0
     16473 MEMB     124      POPC     HX       HAL2     0.900000E-01   1.00800           0
     16474 MEMB     124      POPC     HY       HAL2     0.900000E-01   1.00800           0
     16475 MEMB     124      POPC     O31      OSL     -0.490000       15.9994           0
     16476 MEMB     124      POPC     C31      CL       0.900000       12.0110           0
     16477 MEMB     124      POPC     O32      OBL     -0.630000       15.9994           0
     16478 MEMB     124      POPC     C32      CTL2    -0.220000       12.0110           0
     16479 MEMB     124      POPC     H2X      HAL2     0.900000E-01   1.00800           0
     16480 MEMB     124      POPC     H2Y      HAL2     0.900000E-01   1.00800           0
     16481 MEMB     124      POPC     C23      CTL2    -0.180000       12.0110           0
     16482 MEMB     124      POPC     H3R      HAL2     0.900000E-01   1.00800           0
     16483 MEMB     124      POPC     H3S      HAL2     0.900000E-01   1.00800           0
     16484 MEMB     124      POPC     C24      CTL2    -0.180000       12.0110           0
     16485 MEMB     124      POPC     H4R      HAL2     0.900000E-01   1.00800           0
     16486 MEMB     124      POPC     H4S      HAL2     0.900000E-01   1.00800           0
     16487 MEMB     124      POPC     C25      CTL2    -0.180000       12.0110           0
     16488 MEMB     124      POPC     H5R      HAL2     0.900000E-01   1.00800           0
     16489 MEMB     124      POPC     H5S      HAL2     0.900000E-01   1.00800           0
     16490 MEMB     124      POPC     C26      CTL2    -0.180000       12.0110           0
     16491 MEMB     124      POPC     H6R      HAL2     0.900000E-01   1.00800           0
     16492 MEMB     124      POPC     H6S      HAL2     0.900000E-01   1.00800           0
     16493 MEMB     124      POPC     C27      CTL2    -0.180000       12.0110           0
     16494 MEMB     124      POPC     H7R      HAL2     0.900000E-01   1.00800           0
     16495 MEMB     124      POPC     H7S      HAL2     0.900000E-01   1.00800           0
     16496 MEMB     124      POPC     C28      CTL2    -0.180000       12.0110           0
     16497 MEMB     124      POPC     H8R      HAL2     0.900000E-01   1.00800           0
     16498 MEMB     124      POPC     H8S      HAL2     0.900000E-01   1.00800           0
     16499 MEMB     124      POPC     C29      CEL1    -0.150000       12.0110           0
     16500 MEMB     124      POPC     H91      HEL1     0.150000       1.00800           0
     16501 MEMB     124      POPC     C210     CEL1    -0.150000       12.0110           0
     16502 MEMB     124      POPC     H101     HEL1     0.150000       1.00800           0
     16503 MEMB     124      POPC     C211     CTL2    -0.180000       12.0110           0
     16504 MEMB     124      POPC     H11R     HAL2     0.900000E-01   1.00800           0
     16505 MEMB     124      POPC     H11S     HAL2     0.900000E-01   1.00800           0
     16506 MEMB     124      POPC     C212     CTL2    -0.180000       12.0110           0
     16507 MEMB     124      POPC     H12R     HAL2     0.900000E-01   1.00800           0
     16508 MEMB     124      POPC     H12S     HAL2     0.900000E-01   1.00800           0
     16509 MEMB     124      POPC     C213     CTL2    -0.180000       12.0110           0
     16510 MEMB     124      POPC     H13R     HAL2     0.900000E-01   1.00800           0
     16511 MEMB     124      POPC     H13S     HAL2     0.900000E-01   1.00800           0
     16512 MEMB     124      POPC     C214     CTL2    -0.180000       12.0110           0
     16513 MEMB     124      POPC     H14R     HAL2     0.900000E-01   1.00800           0
     16514 MEMB     124      POPC     H14S     HAL2     0.900000E-01   1.00800           0
     16515 MEMB     124      POPC     C215     CTL2    -0.180000       12.0110           0
     16516 MEMB     124      POPC     H15R     HAL2     0.900000E-01   1.00800           0
     16517 MEMB     124      POPC     H15S     HAL2     0.900000E-01   1.00800           0
     16518 MEMB     124      POPC     C216     CTL2    -0.180000       12.0110           0
     16519 MEMB     124      POPC     H16R     HAL2     0.900000E-01   1.00800           0
     16520 MEMB     124      POPC     H16S     HAL2     0.900000E-01   1.00800           0
     16521 MEMB     124      POPC     C217     CTL2    -0.180000       12.0110           0
     16522 MEMB     124      POPC     H17R     HAL2     0.900000E-01   1.00800           0
     16523 MEMB     124      POPC     H17S     HAL2     0.900000E-01   1.00800           0
     16524 MEMB     124      POPC     C218     CTL3    -0.270000       12.0110           0
     16525 MEMB     124      POPC     H18R     HAL3     0.900000E-01   1.00800           0
     16526 MEMB     124      POPC     H18S     HAL3     0.900000E-01   1.00800           0
     16527 MEMB     124      POPC     H18T     HAL3     0.900000E-01   1.00800           0
     16528 MEMB     124      POPC     C33      CTL2    -0.180000       12.0110           0
     16529 MEMB     124      POPC     H3X      HAL2     0.900000E-01   1.00800           0
     16530 MEMB     124      POPC     H3Y      HAL2     0.900000E-01   1.00800           0
     16531 MEMB     124      POPC     C34      CTL2    -0.180000       12.0110           0
     16532 MEMB     124      POPC     H4X      HAL2     0.900000E-01   1.00800           0
     16533 MEMB     124      POPC     H4Y      HAL2     0.900000E-01   1.00800           0
     16534 MEMB     124      POPC     C35      CTL2    -0.180000       12.0110           0
     16535 MEMB     124      POPC     H5X      HAL2     0.900000E-01   1.00800           0
     16536 MEMB     124      POPC     H5Y      HAL2     0.900000E-01   1.00800           0
     16537 MEMB     124      POPC     C36      CTL2    -0.180000       12.0110           0
     16538 MEMB     124      POPC     H6X      HAL2     0.900000E-01   1.00800           0
     16539 MEMB     124      POPC     H6Y      HAL2     0.900000E-01   1.00800           0
     16540 MEMB     124      POPC     C37      CTL2    -0.180000       12.0110           0
     16541 MEMB     124      POPC     H7X      HAL2     0.900000E-01   1.00800           0
     16542 MEMB     124      POPC     H7Y      HAL2     0.900000E-01   1.00800           0
     16543 MEMB     124      POPC     C38      CTL2    -0.180000       12.0110           0
     16544 MEMB     124      POPC     H8X      HAL2     0.900000E-01   1.00800           0
     16545 MEMB     124      POPC     H8Y      HAL2     0.900000E-01   1.00800           0
     16546 MEMB     124      POPC     C39      CTL2    -0.180000       12.0110           0
     16547 MEMB     124      POPC     H9X      HAL2     0.900000E-01   1.00800           0
     16548 MEMB     124      POPC     H9Y      HAL2     0.900000E-01   1.00800           0
     16549 MEMB     124      POPC     C310     CTL2    -0.180000       12.0110           0
     16550 MEMB     124      POPC     H10X     HAL2     0.900000E-01   1.00800           0
     16551 MEMB     124      POPC     H10Y     HAL2     0.900000E-01   1.00800           0
     16552 MEMB     124      POPC     C311     CTL2    -0.180000       12.0110           0
     16553 MEMB     124      POPC     H11X     HAL2     0.900000E-01   1.00800           0
     16554 MEMB     124      POPC     H11Y     HAL2     0.900000E-01   1.00800           0
     16555 MEMB     124      POPC     C312     CTL2    -0.180000       12.0110           0
     16556 MEMB     124      POPC     H12X     HAL2     0.900000E-01   1.00800           0
     16557 MEMB     124      POPC     H12Y     HAL2     0.900000E-01   1.00800           0
     16558 MEMB     124      POPC     C313     CTL2    -0.180000       12.0110           0
     16559 MEMB     124      POPC     H13X     HAL2     0.900000E-01   1.00800           0
     16560 MEMB     124      POPC     H13Y     HAL2     0.900000E-01   1.00800           0
     16561 MEMB     124      POPC     C314     CTL2    -0.180000       12.0110           0
     16562 MEMB     124      POPC     H14X     HAL2     0.900000E-01   1.00800           0
     16563 MEMB     124      POPC     H14Y     HAL2     0.900000E-01   1.00800           0
     16564 MEMB     124      POPC     C315     CTL2    -0.180000       12.0110           0
     16565 MEMB     124      POPC     H15X     HAL2     0.900000E-01   1.00800           0
     16566 MEMB     124      POPC     H15Y     HAL2     0.900000E-01   1.00800           0
     16567 MEMB     124      POPC     C316     CTL3    -0.270000       12.0110           0
     16568 MEMB     124      POPC     H16X     HAL3     0.900000E-01   1.00800           0
     16569 MEMB     124      POPC     H16Y     HAL3     0.900000E-01   1.00800           0
     16570 MEMB     124      POPC     H16Z     HAL3     0.900000E-01   1.00800           0
     16571 MEMB     125      POPC     N        NTL     -0.600000       14.0070           0
     16572 MEMB     125      POPC     C12      CTL2    -0.100000       12.0110           0
     16573 MEMB     125      POPC     H12A     HL       0.250000       1.00800           0
     16574 MEMB     125      POPC     H12B     HL       0.250000       1.00800           0
     16575 MEMB     125      POPC     C13      CTL5    -0.350000       12.0110           0
     16576 MEMB     125      POPC     H13A     HL       0.250000       1.00800           0
     16577 MEMB     125      POPC     H13B     HL       0.250000       1.00800           0
     16578 MEMB     125      POPC     H13C     HL       0.250000       1.00800           0
     16579 MEMB     125      POPC     C14      CTL5    -0.350000       12.0110           0
     16580 MEMB     125      POPC     H14A     HL       0.250000       1.00800           0
     16581 MEMB     125      POPC     H14B     HL       0.250000       1.00800           0
     16582 MEMB     125      POPC     H14C     HL       0.250000       1.00800           0
     16583 MEMB     125      POPC     C15      CTL5    -0.350000       12.0110           0
     16584 MEMB     125      POPC     H15A     HL       0.250000       1.00800           0
     16585 MEMB     125      POPC     H15B     HL       0.250000       1.00800           0
     16586 MEMB     125      POPC     H15C     HL       0.250000       1.00800           0
     16587 MEMB     125      POPC     C11      CTL2    -0.800000E-01   12.0110           0
     16588 MEMB     125      POPC     H11A     HAL2     0.900000E-01   1.00800           0
     16589 MEMB     125      POPC     H11B     HAL2     0.900000E-01   1.00800           0
     16590 MEMB     125      POPC     P        PL       1.500000       30.9740           0
     16591 MEMB     125      POPC     O13      O2L     -0.780000       15.9994           0
     16592 MEMB     125      POPC     O14      O2L     -0.780000       15.9994           0
     16593 MEMB     125      POPC     O12      OSLP    -0.570000       15.9994           0
     16594 MEMB     125      POPC     O11      OSLP    -0.570000       15.9994           0
     16595 MEMB     125      POPC     C1       CTL2    -0.800000E-01   12.0110           0
     16596 MEMB     125      POPC     HA       HAL2     0.900000E-01   1.00800           0
     16597 MEMB     125      POPC     HB       HAL2     0.900000E-01   1.00800           0
     16598 MEMB     125      POPC     C2       CTL1     0.170000       12.0110           0
     16599 MEMB     125      POPC     HS       HAL1     0.900000E-01   1.00800           0
     16600 MEMB     125      POPC     O21      OSL     -0.490000       15.9994           0
     16601 MEMB     125      POPC     C21      CL       0.900000       12.0110           0
     16602 MEMB     125      POPC     O22      OBL     -0.630000       15.9994           0
     16603 MEMB     125      POPC     C22      CTL2    -0.220000       12.0110           0
     16604 MEMB     125      POPC     H2R      HAL2     0.900000E-01   1.00800           0
     16605 MEMB     125      POPC     H2S      HAL2     0.900000E-01   1.00800           0
     16606 MEMB     125      POPC     C3       CTL2     0.800000E-01   12.0110           0
     16607 MEMB     125      POPC     HX       HAL2     0.900000E-01   1.00800           0
     16608 MEMB     125      POPC     HY       HAL2     0.900000E-01   1.00800           0
     16609 MEMB     125      POPC     O31      OSL     -0.490000       15.9994           0
     16610 MEMB     125      POPC     C31      CL       0.900000       12.0110           0
     16611 MEMB     125      POPC     O32      OBL     -0.630000       15.9994           0
     16612 MEMB     125      POPC     C32      CTL2    -0.220000       12.0110           0
     16613 MEMB     125      POPC     H2X      HAL2     0.900000E-01   1.00800           0
     16614 MEMB     125      POPC     H2Y      HAL2     0.900000E-01   1.00800           0
     16615 MEMB     125      POPC     C23      CTL2    -0.180000       12.0110           0
     16616 MEMB     125      POPC     H3R      HAL2     0.900000E-01   1.00800           0
     16617 MEMB     125      POPC     H3S      HAL2     0.900000E-01   1.00800           0
     16618 MEMB     125      POPC     C24      CTL2    -0.180000       12.0110           0
     16619 MEMB     125      POPC     H4R      HAL2     0.900000E-01   1.00800           0
     16620 MEMB     125      POPC     H4S      HAL2     0.900000E-01   1.00800           0
     16621 MEMB     125      POPC     C25      CTL2    -0.180000       12.0110           0
     16622 MEMB     125      POPC     H5R      HAL2     0.900000E-01   1.00800           0
     16623 MEMB     125      POPC     H5S      HAL2     0.900000E-01   1.00800           0
     16624 MEMB     125      POPC     C26      CTL2    -0.180000       12.0110           0
     16625 MEMB     125      POPC     H6R      HAL2     0.900000E-01   1.00800           0
     16626 MEMB     125      POPC     H6S      HAL2     0.900000E-01   1.00800           0
     16627 MEMB     125      POPC     C27      CTL2    -0.180000       12.0110           0
     16628 MEMB     125      POPC     H7R      HAL2     0.900000E-01   1.00800           0
     16629 MEMB     125      POPC     H7S      HAL2     0.900000E-01   1.00800           0
     16630 MEMB     125      POPC     C28      CTL2    -0.180000       12.0110           0
     16631 MEMB     125      POPC     H8R      HAL2     0.900000E-01   1.00800           0
     16632 MEMB     125      POPC     H8S      HAL2     0.900000E-01   1.00800           0
     16633 MEMB     125      POPC     C29      CEL1    -0.150000       12.0110           0
     16634 MEMB     125      POPC     H91      HEL1     0.150000       1.00800           0
     16635 MEMB     125      POPC     C210     CEL1    -0.150000       12.0110           0
     16636 MEMB     125      POPC     H101     HEL1     0.150000       1.00800           0
     16637 MEMB     125      POPC     C211     CTL2    -0.180000       12.0110           0
     16638 MEMB     125      POPC     H11R     HAL2     0.900000E-01   1.00800           0
     16639 MEMB     125      POPC     H11S     HAL2     0.900000E-01   1.00800           0
     16640 MEMB     125      POPC     C212     CTL2    -0.180000       12.0110           0
     16641 MEMB     125      POPC     H12R     HAL2     0.900000E-01   1.00800           0
     16642 MEMB     125      POPC     H12S     HAL2     0.900000E-01   1.00800           0
     16643 MEMB     125      POPC     C213     CTL2    -0.180000       12.0110           0
     16644 MEMB     125      POPC     H13R     HAL2     0.900000E-01   1.00800           0
     16645 MEMB     125      POPC     H13S     HAL2     0.900000E-01   1.00800           0
     16646 MEMB     125      POPC     C214     CTL2    -0.180000       12.0110           0
     16647 MEMB     125      POPC     H14R     HAL2     0.900000E-01   1.00800           0
     16648 MEMB     125      POPC     H14S     HAL2     0.900000E-01   1.00800           0
     16649 MEMB     125      POPC     C215     CTL2    -0.180000       12.0110           0
     16650 MEMB     125      POPC     H15R     HAL2     0.900000E-01   1.00800           0
     16651 MEMB     125      POPC     H15S     HAL2     0.900000E-01   1.00800           0
     16652 MEMB     125      POPC     C216     CTL2    -0.180000       12.0110           0
     16653 MEMB     125      POPC     H16R     HAL2     0.900000E-01   1.00800           0
     16654 MEMB     125      POPC     H16S     HAL2     0.900000E-01   1.00800           0
     16655 MEMB     125      POPC     C217     CTL2    -0.180000       12.0110           0
     16656 MEMB     125      POPC     H17R     HAL2     0.900000E-01   1.00800           0
     16657 MEMB     125      POPC     H17S     HAL2     0.900000E-01   1.00800           0
     16658 MEMB     125      POPC     C218     CTL3    -0.270000       12.0110           0
     16659 MEMB     125      POPC     H18R     HAL3     0.900000E-01   1.00800           0
     16660 MEMB     125      POPC     H18S     HAL3     0.900000E-01   1.00800           0
     16661 MEMB     125      POPC     H18T     HAL3     0.900000E-01   1.00800           0
     16662 MEMB     125      POPC     C33      CTL2    -0.180000       12.0110           0
     16663 MEMB     125      POPC     H3X      HAL2     0.900000E-01   1.00800           0
     16664 MEMB     125      POPC     H3Y      HAL2     0.900000E-01   1.00800           0
     16665 MEMB     125      POPC     C34      CTL2    -0.180000       12.0110           0
     16666 MEMB     125      POPC     H4X      HAL2     0.900000E-01   1.00800           0
     16667 MEMB     125      POPC     H4Y      HAL2     0.900000E-01   1.00800           0
     16668 MEMB     125      POPC     C35      CTL2    -0.180000       12.0110           0
     16669 MEMB     125      POPC     H5X      HAL2     0.900000E-01   1.00800           0
     16670 MEMB     125      POPC     H5Y      HAL2     0.900000E-01   1.00800           0
     16671 MEMB     125      POPC     C36      CTL2    -0.180000       12.0110           0
     16672 MEMB     125      POPC     H6X      HAL2     0.900000E-01   1.00800           0
     16673 MEMB     125      POPC     H6Y      HAL2     0.900000E-01   1.00800           0
     16674 MEMB     125      POPC     C37      CTL2    -0.180000       12.0110           0
     16675 MEMB     125      POPC     H7X      HAL2     0.900000E-01   1.00800           0
     16676 MEMB     125      POPC     H7Y      HAL2     0.900000E-01   1.00800           0
     16677 MEMB     125      POPC     C38      CTL2    -0.180000       12.0110           0
     16678 MEMB     125      POPC     H8X      HAL2     0.900000E-01   1.00800           0
     16679 MEMB     125      POPC     H8Y      HAL2     0.900000E-01   1.00800           0
     16680 MEMB     125      POPC     C39      CTL2    -0.180000       12.0110           0
     16681 MEMB     125      POPC     H9X      HAL2     0.900000E-01   1.00800           0
     16682 MEMB     125      POPC     H9Y      HAL2     0.900000E-01   1.00800           0
     16683 MEMB     125      POPC     C310     CTL2    -0.180000       12.0110           0
     16684 MEMB     125      POPC     H10X     HAL2     0.900000E-01   1.00800           0
     16685 MEMB     125      POPC     H10Y     HAL2     0.900000E-01   1.00800           0
     16686 MEMB     125      POPC     C311     CTL2    -0.180000       12.0110           0
     16687 MEMB     125      POPC     H11X     HAL2     0.900000E-01   1.00800           0
     16688 MEMB     125      POPC     H11Y     HAL2     0.900000E-01   1.00800           0
     16689 MEMB     125      POPC     C312     CTL2    -0.180000       12.0110           0
     16690 MEMB     125      POPC     H12X     HAL2     0.900000E-01   1.00800           0
     16691 MEMB     125      POPC     H12Y     HAL2     0.900000E-01   1.00800           0
     16692 MEMB     125      POPC     C313     CTL2    -0.180000       12.0110           0
     16693 MEMB     125      POPC     H13X     HAL2     0.900000E-01   1.00800           0
     16694 MEMB     125      POPC     H13Y     HAL2     0.900000E-01   1.00800           0
     16695 MEMB     125      POPC     C314     CTL2    -0.180000       12.0110           0
     16696 MEMB     125      POPC     H14X     HAL2     0.900000E-01   1.00800           0
     16697 MEMB     125      POPC     H14Y     HAL2     0.900000E-01   1.00800           0
     16698 MEMB     125      POPC     C315     CTL2    -0.180000       12.0110           0
     16699 MEMB     125      POPC     H15X     HAL2     0.900000E-01   1.00800           0
     16700 MEMB     125      POPC     H15Y     HAL2     0.900000E-01   1.00800           0
     16701 MEMB     125      POPC     C316     CTL3    -0.270000       12.0110           0
     16702 MEMB     125      POPC     H16X     HAL3     0.900000E-01   1.00800           0
     16703 MEMB     125      POPC     H16Y     HAL3     0.900000E-01   1.00800           0
     16704 MEMB     125      POPC     H16Z     HAL3     0.900000E-01   1.00800           0
     16705 MEMB     126      POPC     N        NTL     -0.600000       14.0070           0
     16706 MEMB     126      POPC     C12      CTL2    -0.100000       12.0110           0
     16707 MEMB     126      POPC     H12A     HL       0.250000       1.00800           0
     16708 MEMB     126      POPC     H12B     HL       0.250000       1.00800           0
     16709 MEMB     126      POPC     C13      CTL5    -0.350000       12.0110           0
     16710 MEMB     126      POPC     H13A     HL       0.250000       1.00800           0
     16711 MEMB     126      POPC     H13B     HL       0.250000       1.00800           0
     16712 MEMB     126      POPC     H13C     HL       0.250000       1.00800           0
     16713 MEMB     126      POPC     C14      CTL5    -0.350000       12.0110           0
     16714 MEMB     126      POPC     H14A     HL       0.250000       1.00800           0
     16715 MEMB     126      POPC     H14B     HL       0.250000       1.00800           0
     16716 MEMB     126      POPC     H14C     HL       0.250000       1.00800           0
     16717 MEMB     126      POPC     C15      CTL5    -0.350000       12.0110           0
     16718 MEMB     126      POPC     H15A     HL       0.250000       1.00800           0
     16719 MEMB     126      POPC     H15B     HL       0.250000       1.00800           0
     16720 MEMB     126      POPC     H15C     HL       0.250000       1.00800           0
     16721 MEMB     126      POPC     C11      CTL2    -0.800000E-01   12.0110           0
     16722 MEMB     126      POPC     H11A     HAL2     0.900000E-01   1.00800           0
     16723 MEMB     126      POPC     H11B     HAL2     0.900000E-01   1.00800           0
     16724 MEMB     126      POPC     P        PL       1.500000       30.9740           0
     16725 MEMB     126      POPC     O13      O2L     -0.780000       15.9994           0
     16726 MEMB     126      POPC     O14      O2L     -0.780000       15.9994           0
     16727 MEMB     126      POPC     O12      OSLP    -0.570000       15.9994           0
     16728 MEMB     126      POPC     O11      OSLP    -0.570000       15.9994           0
     16729 MEMB     126      POPC     C1       CTL2    -0.800000E-01   12.0110           0
     16730 MEMB     126      POPC     HA       HAL2     0.900000E-01   1.00800           0
     16731 MEMB     126      POPC     HB       HAL2     0.900000E-01   1.00800           0
     16732 MEMB     126      POPC     C2       CTL1     0.170000       12.0110           0
     16733 MEMB     126      POPC     HS       HAL1     0.900000E-01   1.00800           0
     16734 MEMB     126      POPC     O21      OSL     -0.490000       15.9994           0
     16735 MEMB     126      POPC     C21      CL       0.900000       12.0110           0
     16736 MEMB     126      POPC     O22      OBL     -0.630000       15.9994           0
     16737 MEMB     126      POPC     C22      CTL2    -0.220000       12.0110           0
     16738 MEMB     126      POPC     H2R      HAL2     0.900000E-01   1.00800           0
     16739 MEMB     126      POPC     H2S      HAL2     0.900000E-01   1.00800           0
     16740 MEMB     126      POPC     C3       CTL2     0.800000E-01   12.0110           0
     16741 MEMB     126      POPC     HX       HAL2     0.900000E-01   1.00800           0
     16742 MEMB     126      POPC     HY       HAL2     0.900000E-01   1.00800           0
     16743 MEMB     126      POPC     O31      OSL     -0.490000       15.9994           0
     16744 MEMB     126      POPC     C31      CL       0.900000       12.0110           0
     16745 MEMB     126      POPC     O32      OBL     -0.630000       15.9994           0
     16746 MEMB     126      POPC     C32      CTL2    -0.220000       12.0110           0
     16747 MEMB     126      POPC     H2X      HAL2     0.900000E-01   1.00800           0
     16748 MEMB     126      POPC     H2Y      HAL2     0.900000E-01   1.00800           0
     16749 MEMB     126      POPC     C23      CTL2    -0.180000       12.0110           0
     16750 MEMB     126      POPC     H3R      HAL2     0.900000E-01   1.00800           0
     16751 MEMB     126      POPC     H3S      HAL2     0.900000E-01   1.00800           0
     16752 MEMB     126      POPC     C24      CTL2    -0.180000       12.0110           0
     16753 MEMB     126      POPC     H4R      HAL2     0.900000E-01   1.00800           0
     16754 MEMB     126      POPC     H4S      HAL2     0.900000E-01   1.00800           0
     16755 MEMB     126      POPC     C25      CTL2    -0.180000       12.0110           0
     16756 MEMB     126      POPC     H5R      HAL2     0.900000E-01   1.00800           0
     16757 MEMB     126      POPC     H5S      HAL2     0.900000E-01   1.00800           0
     16758 MEMB     126      POPC     C26      CTL2    -0.180000       12.0110           0
     16759 MEMB     126      POPC     H6R      HAL2     0.900000E-01   1.00800           0
     16760 MEMB     126      POPC     H6S      HAL2     0.900000E-01   1.00800           0
     16761 MEMB     126      POPC     C27      CTL2    -0.180000       12.0110           0
     16762 MEMB     126      POPC     H7R      HAL2     0.900000E-01   1.00800           0
     16763 MEMB     126      POPC     H7S      HAL2     0.900000E-01   1.00800           0
     16764 MEMB     126      POPC     C28      CTL2    -0.180000       12.0110           0
     16765 MEMB     126      POPC     H8R      HAL2     0.900000E-01   1.00800           0
     16766 MEMB     126      POPC     H8S      HAL2     0.900000E-01   1.00800           0
     16767 MEMB     126      POPC     C29      CEL1    -0.150000       12.0110           0
     16768 MEMB     126      POPC     H91      HEL1     0.150000       1.00800           0
     16769 MEMB     126      POPC     C210     CEL1    -0.150000       12.0110           0
     16770 MEMB     126      POPC     H101     HEL1     0.150000       1.00800           0
     16771 MEMB     126      POPC     C211     CTL2    -0.180000       12.0110           0
     16772 MEMB     126      POPC     H11R     HAL2     0.900000E-01   1.00800           0
     16773 MEMB     126      POPC     H11S     HAL2     0.900000E-01   1.00800           0
     16774 MEMB     126      POPC     C212     CTL2    -0.180000       12.0110           0
     16775 MEMB     126      POPC     H12R     HAL2     0.900000E-01   1.00800           0
     16776 MEMB     126      POPC     H12S     HAL2     0.900000E-01   1.00800           0
     16777 MEMB     126      POPC     C213     CTL2    -0.180000       12.0110           0
     16778 MEMB     126      POPC     H13R     HAL2     0.900000E-01   1.00800           0
     16779 MEMB     126      POPC     H13S     HAL2     0.900000E-01   1.00800           0
     16780 MEMB     126      POPC     C214     CTL2    -0.180000       12.0110           0
     16781 MEMB     126      POPC     H14R     HAL2     0.900000E-01   1.00800           0
     16782 MEMB     126      POPC     H14S     HAL2     0.900000E-01   1.00800           0
     16783 MEMB     126      POPC     C215     CTL2    -0.180000       12.0110           0
     16784 MEMB     126      POPC     H15R     HAL2     0.900000E-01   1.00800           0
     16785 MEMB     126      POPC     H15S     HAL2     0.900000E-01   1.00800           0
     16786 MEMB     126      POPC     C216     CTL2    -0.180000       12.0110           0
     16787 MEMB     126      POPC     H16R     HAL2     0.900000E-01   1.00800           0
     16788 MEMB     126      POPC     H16S     HAL2     0.900000E-01   1.00800           0
     16789 MEMB     126      POPC     C217     CTL2    -0.180000       12.0110           0
     16790 MEMB     126      POPC     H17R     HAL2     0.900000E-01   1.00800           0
     16791 MEMB     126      POPC     H17S     HAL2     0.900000E-01   1.00800           0
     16792 MEMB     126      POPC     C218     CTL3    -0.270000       12.0110           0
     16793 MEMB     126      POPC     H18R     HAL3     0.900000E-01   1.00800           0
     16794 MEMB     126      POPC     H18S     HAL3     0.900000E-01   1.00800           0
     16795 MEMB     126      POPC     H18T     HAL3     0.900000E-01   1.00800           0
     16796 MEMB     126      POPC     C33      CTL2    -0.180000       12.0110           0
     16797 MEMB     126      POPC     H3X      HAL2     0.900000E-01   1.00800           0
     16798 MEMB     126      POPC     H3Y      HAL2     0.900000E-01   1.00800           0
     16799 MEMB     126      POPC     C34      CTL2    -0.180000       12.0110           0
     16800 MEMB     126      POPC     H4X      HAL2     0.900000E-01   1.00800           0
     16801 MEMB     126      POPC     H4Y      HAL2     0.900000E-01   1.00800           0
     16802 MEMB     126      POPC     C35      CTL2    -0.180000       12.0110           0
     16803 MEMB     126      POPC     H5X      HAL2     0.900000E-01   1.00800           0
     16804 MEMB     126      POPC     H5Y      HAL2     0.900000E-01   1.00800           0
     16805 MEMB     126      POPC     C36      CTL2    -0.180000       12.0110           0
     16806 MEMB     126      POPC     H6X      HAL2     0.900000E-01   1.00800           0
     16807 MEMB     126      POPC     H6Y      HAL2     0.900000E-01   1.00800           0
     16808 MEMB     126      POPC     C37      CTL2    -0.180000       12.0110           0
     16809 MEMB     126      POPC     H7X      HAL2     0.900000E-01   1.00800           0
     16810 MEMB     126      POPC     H7Y      HAL2     0.900000E-01   1.00800           0
     16811 MEMB     126      POPC     C38      CTL2    -0.180000       12.0110           0
     16812 MEMB     126      POPC     H8X      HAL2     0.900000E-01   1.00800           0
     16813 MEMB     126      POPC     H8Y      HAL2     0.900000E-01   1.00800           0
     16814 MEMB     126      POPC     C39      CTL2    -0.180000       12.0110           0
     16815 MEMB     126      POPC     H9X      HAL2     0.900000E-01   1.00800           0
     16816 MEMB     126      POPC     H9Y      HAL2     0.900000E-01   1.00800           0
     16817 MEMB     126      POPC     C310     CTL2    -0.180000       12.0110           0
     16818 MEMB     126      POPC     H10X     HAL2     0.900000E-01   1.00800           0
     16819 MEMB     126      POPC     H10Y     HAL2     0.900000E-01   1.00800           0
     16820 MEMB     126      POPC     C311     CTL2    -0.180000       12.0110           0
     16821 MEMB     126      POPC     H11X     HAL2     0.900000E-01   1.00800           0
     16822 MEMB     126      POPC     H11Y     HAL2     0.900000E-01   1.00800           0
     16823 MEMB     126      POPC     C312     CTL2    -0.180000       12.0110           0
     16824 MEMB     126      POPC     H12X     HAL2     0.900000E-01   1.00800           0
     16825 MEMB     126      POPC     H12Y     HAL2     0.900000E-01   1.00800           0
     16826 MEMB     126      POPC     C313     CTL2    -0.180000       12.0110           0
     16827 MEMB     126      POPC     H13X     HAL2     0.900000E-01   1.00800           0
     16828 MEMB     126      POPC     H13Y     HAL2     0.900000E-01   1.00800           0
     16829 MEMB     126      POPC     C314     CTL2    -0.180000       12.0110           0
     16830 MEMB     126      POPC     H14X     HAL2     0.900000E-01   1.00800           0
     16831 MEMB     126      POPC     H14Y     HAL2     0.900000E-01   1.00800           0
     16832 MEMB     126      POPC     C315     CTL2    -0.180000       12.0110           0
     16833 MEMB     126      POPC     H15X     HAL2     0.900000E-01   1.00800           0
     16834 MEMB     126      POPC     H15Y     HAL2     0.900000E-01   1.00800           0
     16835 MEMB     126      POPC     C316     CTL3    -0.270000       12.0110           0
     16836 MEMB     126      POPC     H16X     HAL3     0.900000E-01   1.00800           0
     16837 MEMB     126      POPC     H16Y     HAL3     0.900000E-01   1.00800           0
     16838 MEMB     126      POPC     H16Z     HAL3     0.900000E-01   1.00800           0
     16839 MEMB     127      POPC     N        NTL     -0.600000       14.0070           0
     16840 MEMB     127      POPC     C12      CTL2    -0.100000       12.0110           0
     16841 MEMB     127      POPC     H12A     HL       0.250000       1.00800           0
     16842 MEMB     127      POPC     H12B     HL       0.250000       1.00800           0
     16843 MEMB     127      POPC     C13      CTL5    -0.350000       12.0110           0
     16844 MEMB     127      POPC     H13A     HL       0.250000       1.00800           0
     16845 MEMB     127      POPC     H13B     HL       0.250000       1.00800           0
     16846 MEMB     127      POPC     H13C     HL       0.250000       1.00800           0
     16847 MEMB     127      POPC     C14      CTL5    -0.350000       12.0110           0
     16848 MEMB     127      POPC     H14A     HL       0.250000       1.00800           0
     16849 MEMB     127      POPC     H14B     HL       0.250000       1.00800           0
     16850 MEMB     127      POPC     H14C     HL       0.250000       1.00800           0
     16851 MEMB     127      POPC     C15      CTL5    -0.350000       12.0110           0
     16852 MEMB     127      POPC     H15A     HL       0.250000       1.00800           0
     16853 MEMB     127      POPC     H15B     HL       0.250000       1.00800           0
     16854 MEMB     127      POPC     H15C     HL       0.250000       1.00800           0
     16855 MEMB     127      POPC     C11      CTL2    -0.800000E-01   12.0110           0
     16856 MEMB     127      POPC     H11A     HAL2     0.900000E-01   1.00800           0
     16857 MEMB     127      POPC     H11B     HAL2     0.900000E-01   1.00800           0
     16858 MEMB     127      POPC     P        PL       1.500000       30.9740           0
     16859 MEMB     127      POPC     O13      O2L     -0.780000       15.9994           0
     16860 MEMB     127      POPC     O14      O2L     -0.780000       15.9994           0
     16861 MEMB     127      POPC     O12      OSLP    -0.570000       15.9994           0
     16862 MEMB     127      POPC     O11      OSLP    -0.570000       15.9994           0
     16863 MEMB     127      POPC     C1       CTL2    -0.800000E-01   12.0110           0
     16864 MEMB     127      POPC     HA       HAL2     0.900000E-01   1.00800           0
     16865 MEMB     127      POPC     HB       HAL2     0.900000E-01   1.00800           0
     16866 MEMB     127      POPC     C2       CTL1     0.170000       12.0110           0
     16867 MEMB     127      POPC     HS       HAL1     0.900000E-01   1.00800           0
     16868 MEMB     127      POPC     O21      OSL     -0.490000       15.9994           0
     16869 MEMB     127      POPC     C21      CL       0.900000       12.0110           0
     16870 MEMB     127      POPC     O22      OBL     -0.630000       15.9994           0
     16871 MEMB     127      POPC     C22      CTL2    -0.220000       12.0110           0
     16872 MEMB     127      POPC     H2R      HAL2     0.900000E-01   1.00800           0
     16873 MEMB     127      POPC     H2S      HAL2     0.900000E-01   1.00800           0
     16874 MEMB     127      POPC     C3       CTL2     0.800000E-01   12.0110           0
     16875 MEMB     127      POPC     HX       HAL2     0.900000E-01   1.00800           0
     16876 MEMB     127      POPC     HY       HAL2     0.900000E-01   1.00800           0
     16877 MEMB     127      POPC     O31      OSL     -0.490000       15.9994           0
     16878 MEMB     127      POPC     C31      CL       0.900000       12.0110           0
     16879 MEMB     127      POPC     O32      OBL     -0.630000       15.9994           0
     16880 MEMB     127      POPC     C32      CTL2    -0.220000       12.0110           0
     16881 MEMB     127      POPC     H2X      HAL2     0.900000E-01   1.00800           0
     16882 MEMB     127      POPC     H2Y      HAL2     0.900000E-01   1.00800           0
     16883 MEMB     127      POPC     C23      CTL2    -0.180000       12.0110           0
     16884 MEMB     127      POPC     H3R      HAL2     0.900000E-01   1.00800           0
     16885 MEMB     127      POPC     H3S      HAL2     0.900000E-01   1.00800           0
     16886 MEMB     127      POPC     C24      CTL2    -0.180000       12.0110           0
     16887 MEMB     127      POPC     H4R      HAL2     0.900000E-01   1.00800           0
     16888 MEMB     127      POPC     H4S      HAL2     0.900000E-01   1.00800           0
     16889 MEMB     127      POPC     C25      CTL2    -0.180000       12.0110           0
     16890 MEMB     127      POPC     H5R      HAL2     0.900000E-01   1.00800           0
     16891 MEMB     127      POPC     H5S      HAL2     0.900000E-01   1.00800           0
     16892 MEMB     127      POPC     C26      CTL2    -0.180000       12.0110           0
     16893 MEMB     127      POPC     H6R      HAL2     0.900000E-01   1.00800           0
     16894 MEMB     127      POPC     H6S      HAL2     0.900000E-01   1.00800           0
     16895 MEMB     127      POPC     C27      CTL2    -0.180000       12.0110           0
     16896 MEMB     127      POPC     H7R      HAL2     0.900000E-01   1.00800           0
     16897 MEMB     127      POPC     H7S      HAL2     0.900000E-01   1.00800           0
     16898 MEMB     127      POPC     C28      CTL2    -0.180000       12.0110           0
     16899 MEMB     127      POPC     H8R      HAL2     0.900000E-01   1.00800           0
     16900 MEMB     127      POPC     H8S      HAL2     0.900000E-01   1.00800           0
     16901 MEMB     127      POPC     C29      CEL1    -0.150000       12.0110           0
     16902 MEMB     127      POPC     H91      HEL1     0.150000       1.00800           0
     16903 MEMB     127      POPC     C210     CEL1    -0.150000       12.0110           0
     16904 MEMB     127      POPC     H101     HEL1     0.150000       1.00800           0
     16905 MEMB     127      POPC     C211     CTL2    -0.180000       12.0110           0
     16906 MEMB     127      POPC     H11R     HAL2     0.900000E-01   1.00800           0
     16907 MEMB     127      POPC     H11S     HAL2     0.900000E-01   1.00800           0
     16908 MEMB     127      POPC     C212     CTL2    -0.180000       12.0110           0
     16909 MEMB     127      POPC     H12R     HAL2     0.900000E-01   1.00800           0
     16910 MEMB     127      POPC     H12S     HAL2     0.900000E-01   1.00800           0
     16911 MEMB     127      POPC     C213     CTL2    -0.180000       12.0110           0
     16912 MEMB     127      POPC     H13R     HAL2     0.900000E-01   1.00800           0
     16913 MEMB     127      POPC     H13S     HAL2     0.900000E-01   1.00800           0
     16914 MEMB     127      POPC     C214     CTL2    -0.180000       12.0110           0
     16915 MEMB     127      POPC     H14R     HAL2     0.900000E-01   1.00800           0
     16916 MEMB     127      POPC     H14S     HAL2     0.900000E-01   1.00800           0
     16917 MEMB     127      POPC     C215     CTL2    -0.180000       12.0110           0
     16918 MEMB     127      POPC     H15R     HAL2     0.900000E-01   1.00800           0
     16919 MEMB     127      POPC     H15S     HAL2     0.900000E-01   1.00800           0
     16920 MEMB     127      POPC     C216     CTL2    -0.180000       12.0110           0
     16921 MEMB     127      POPC     H16R     HAL2     0.900000E-01   1.00800           0
     16922 MEMB     127      POPC     H16S     HAL2     0.900000E-01   1.00800           0
     16923 MEMB     127      POPC     C217     CTL2    -0.180000       12.0110           0
     16924 MEMB     127      POPC     H17R     HAL2     0.900000E-01   1.00800           0
     16925 MEMB     127      POPC     H17S     HAL2     0.900000E-01   1.00800           0
     16926 MEMB     127      POPC     C218     CTL3    -0.270000       12.0110           0
     16927 MEMB     127      POPC     H18R     HAL3     0.900000E-01   1.00800           0
     16928 MEMB     127      POPC     H18S     HAL3     0.900000E-01   1.00800           0
     16929 MEMB     127      POPC     H18T     HAL3     0.900000E-01   1.00800           0
     16930 MEMB     127      POPC     C33      CTL2    -0.180000       12.0110           0
     16931 MEMB     127      POPC     H3X      HAL2     0.900000E-01   1.00800           0
     16932 MEMB     127      POPC     H3Y      HAL2     0.900000E-01   1.00800           0
     16933 MEMB     127      POPC     C34      CTL2    -0.180000       12.0110           0
     16934 MEMB     127      POPC     H4X      HAL2     0.900000E-01   1.00800           0
     16935 MEMB     127      POPC     H4Y      HAL2     0.900000E-01   1.00800           0
     16936 MEMB     127      POPC     C35      CTL2    -0.180000       12.0110           0
     16937 MEMB     127      POPC     H5X      HAL2     0.900000E-01   1.00800           0
     16938 MEMB     127      POPC     H5Y      HAL2     0.900000E-01   1.00800           0
     16939 MEMB     127      POPC     C36      CTL2    -0.180000       12.0110           0
     16940 MEMB     127      POPC     H6X      HAL2     0.900000E-01   1.00800           0
     16941 MEMB     127      POPC     H6Y      HAL2     0.900000E-01   1.00800           0
     16942 MEMB     127      POPC     C37      CTL2    -0.180000       12.0110           0
     16943 MEMB     127      POPC     H7X      HAL2     0.900000E-01   1.00800           0
     16944 MEMB     127      POPC     H7Y      HAL2     0.900000E-01   1.00800           0
     16945 MEMB     127      POPC     C38      CTL2    -0.180000       12.0110           0
     16946 MEMB     127      POPC     H8X      HAL2     0.900000E-01   1.00800           0
     16947 MEMB     127      POPC     H8Y      HAL2     0.900000E-01   1.00800           0
     16948 MEMB     127      POPC     C39      CTL2    -0.180000       12.0110           0
     16949 MEMB     127      POPC     H9X      HAL2     0.900000E-01   1.00800           0
     16950 MEMB     127      POPC     H9Y      HAL2     0.900000E-01   1.00800           0
     16951 MEMB     127      POPC     C310     CTL2    -0.180000       12.0110           0
     16952 MEMB     127      POPC     H10X     HAL2     0.900000E-01   1.00800           0
     16953 MEMB     127      POPC     H10Y     HAL2     0.900000E-01   1.00800           0
     16954 MEMB     127      POPC     C311     CTL2    -0.180000       12.0110           0
     16955 MEMB     127      POPC     H11X     HAL2     0.900000E-01   1.00800           0
     16956 MEMB     127      POPC     H11Y     HAL2     0.900000E-01   1.00800           0
     16957 MEMB     127      POPC     C312     CTL2    -0.180000       12.0110           0
     16958 MEMB     127      POPC     H12X     HAL2     0.900000E-01   1.00800           0
     16959 MEMB     127      POPC     H12Y     HAL2     0.900000E-01   1.00800           0
     16960 MEMB     127      POPC     C313     CTL2    -0.180000       12.0110           0
     16961 MEMB     127      POPC     H13X     HAL2     0.900000E-01   1.00800           0
     16962 MEMB     127      POPC     H13Y     HAL2     0.900000E-01   1.00800           0
     16963 MEMB     127      POPC     C314     CTL2    -0.180000       12.0110           0
     16964 MEMB     127      POPC     H14X     HAL2     0.900000E-01   1.00800           0
     16965 MEMB     127      POPC     H14Y     HAL2     0.900000E-01   1.00800           0
     16966 MEMB     127      POPC     C315     CTL2    -0.180000       12.0110           0
     16967 MEMB     127      POPC     H15X     HAL2     0.900000E-01   1.00800           0
     16968 MEMB     127      POPC     H15Y     HAL2     0.900000E-01   1.00800           0
     16969 MEMB     127      POPC     C316     CTL3    -0.270000       12.0110           0
     16970 MEMB     127      POPC     H16X     HAL3     0.900000E-01   1.00800           0
     16971 MEMB     127      POPC     H16Y     HAL3     0.900000E-01   1.00800           0
     16972 MEMB     127      POPC     H16Z     HAL3     0.900000E-01   1.00800           0
     16973 MEMB     128      POPC     N        NTL     -0.600000       14.0070           0
     16974 MEMB     128      POPC     C12      CTL2    -0.100000       12.0110           0
     16975 MEMB     128      POPC     H12A     HL       0.250000       1.00800           0
     16976 MEMB     128      POPC     H12B     HL       0.250000       1.00800           0
     16977 MEMB     128      POPC     C13      CTL5    -0.350000       12.0110           0
     16978 MEMB     128      POPC     H13A     HL       0.250000       1.00800           0
     16979 MEMB     128      POPC     H13B     HL       0.250000       1.00800           0
     16980 MEMB     128      POPC     H13C     HL       0.250000       1.00800           0
     16981 MEMB     128      POPC     C14      CTL5    -0.350000       12.0110           0
     16982 MEMB     128      POPC     H14A     HL       0.250000       1.00800           0
     16983 MEMB     128      POPC     H14B     HL       0.250000       1.00800           0
     16984 MEMB     128      POPC     H14C     HL       0.250000       1.00800           0
     16985 MEMB     128      POPC     C15      CTL5    -0.350000       12.0110           0
     16986 MEMB     128      POPC     H15A     HL       0.250000       1.00800           0
     16987 MEMB     128      POPC     H15B     HL       0.250000       1.00800           0
     16988 MEMB     128      POPC     H15C     HL       0.250000       1.00800           0
     16989 MEMB     128      POPC     C11      CTL2    -0.800000E-01   12.0110           0
     16990 MEMB     128      POPC     H11A     HAL2     0.900000E-01   1.00800           0
     16991 MEMB     128      POPC     H11B     HAL2     0.900000E-01   1.00800           0
     16992 MEMB     128      POPC     P        PL       1.500000       30.9740           0
     16993 MEMB     128      POPC     O13      O2L     -0.780000       15.9994           0
     16994 MEMB     128      POPC     O14      O2L     -0.780000       15.9994           0
     16995 MEMB     128      POPC     O12      OSLP    -0.570000       15.9994           0
     16996 MEMB     128      POPC     O11      OSLP    -0.570000       15.9994           0
     16997 MEMB     128      POPC     C1       CTL2    -0.800000E-01   12.0110           0
     16998 MEMB     128      POPC     HA       HAL2     0.900000E-01   1.00800           0
     16999 MEMB     128      POPC     HB       HAL2     0.900000E-01   1.00800           0
     17000 MEMB     128      POPC     C2       CTL1     0.170000       12.0110           0
     17001 MEMB     128      POPC     HS       HAL1     0.900000E-01   1.00800           0
     17002 MEMB     128      POPC     O21      OSL     -0.490000       15.9994           0
     17003 MEMB     128      POPC     C21      CL       0.900000       12.0110           0
     17004 MEMB     128      POPC     O22      OBL     -0.630000       15.9994           0
     17005 MEMB     128      POPC     C22      CTL2    -0.220000       12.0110           0
     17006 MEMB     128      POPC     H2R      HAL2     0.900000E-01   1.00800           0
     17007 MEMB     128      POPC     H2S      HAL2     0.900000E-01   1.00800           0
     17008 MEMB     128      POPC     C3       CTL2     0.800000E-01   12.0110           0
     17009 MEMB     128      POPC     HX       HAL2     0.900000E-01   1.00800           0
     17010 MEMB     128      POPC     HY       HAL2     0.900000E-01   1.00800           0
     17011 MEMB     128      POPC     O31      OSL     -0.490000       15.9994           0
     17012 MEMB     128      POPC     C31      CL       0.900000       12.0110           0
     17013 MEMB     128      POPC     O32      OBL     -0.630000       15.9994           0
     17014 MEMB     128      POPC     C32      CTL2    -0.220000       12.0110           0
     17015 MEMB     128      POPC     H2X      HAL2     0.900000E-01   1.00800           0
     17016 MEMB     128      POPC     H2Y      HAL2     0.900000E-01   1.00800           0
     17017 MEMB     128      POPC     C23      CTL2    -0.180000       12.0110           0
     17018 MEMB     128      POPC     H3R      HAL2     0.900000E-01   1.00800           0
     17019 MEMB     128      POPC     H3S      HAL2     0.900000E-01   1.00800           0
     17020 MEMB     128      POPC     C24      CTL2    -0.180000       12.0110           0
     17021 MEMB     128      POPC     H4R      HAL2     0.900000E-01   1.00800           0
     17022 MEMB     128      POPC     H4S      HAL2     0.900000E-01   1.00800           0
     17023 MEMB     128      POPC     C25      CTL2    -0.180000       12.0110           0
     17024 MEMB     128      POPC     H5R      HAL2     0.900000E-01   1.00800           0
     17025 MEMB     128      POPC     H5S      HAL2     0.900000E-01   1.00800           0
     17026 MEMB     128      POPC     C26      CTL2    -0.180000       12.0110           0
     17027 MEMB     128      POPC     H6R      HAL2     0.900000E-01   1.00800           0
     17028 MEMB     128      POPC     H6S      HAL2     0.900000E-01   1.00800           0
     17029 MEMB     128      POPC     C27      CTL2    -0.180000       12.0110           0
     17030 MEMB     128      POPC     H7R      HAL2     0.900000E-01   1.00800           0
     17031 MEMB     128      POPC     H7S      HAL2     0.900000E-01   1.00800           0
     17032 MEMB     128      POPC     C28      CTL2    -0.180000       12.0110           0
     17033 MEMB     128      POPC     H8R      HAL2     0.900000E-01   1.00800           0
     17034 MEMB     128      POPC     H8S      HAL2     0.900000E-01   1.00800           0
     17035 MEMB     128      POPC     C29      CEL1    -0.150000       12.0110           0
     17036 MEMB     128      POPC     H91      HEL1     0.150000       1.00800           0
     17037 MEMB     128      POPC     C210     CEL1    -0.150000       12.0110           0
     17038 MEMB     128      POPC     H101     HEL1     0.150000       1.00800           0
     17039 MEMB     128      POPC     C211     CTL2    -0.180000       12.0110           0
     17040 MEMB     128      POPC     H11R     HAL2     0.900000E-01   1.00800           0
     17041 MEMB     128      POPC     H11S     HAL2     0.900000E-01   1.00800           0
     17042 MEMB     128      POPC     C212     CTL2    -0.180000       12.0110           0
     17043 MEMB     128      POPC     H12R     HAL2     0.900000E-01   1.00800           0
     17044 MEMB     128      POPC     H12S     HAL2     0.900000E-01   1.00800           0
     17045 MEMB     128      POPC     C213     CTL2    -0.180000       12.0110           0
     17046 MEMB     128      POPC     H13R     HAL2     0.900000E-01   1.00800           0
     17047 MEMB     128      POPC     H13S     HAL2     0.900000E-01   1.00800           0
     17048 MEMB     128      POPC     C214     CTL2    -0.180000       12.0110           0
     17049 MEMB     128      POPC     H14R     HAL2     0.900000E-01   1.00800           0
     17050 MEMB     128      POPC     H14S     HAL2     0.900000E-01   1.00800           0
     17051 MEMB     128      POPC     C215     CTL2    -0.180000       12.0110           0
     17052 MEMB     128      POPC     H15R     HAL2     0.900000E-01   1.00800           0
     17053 MEMB     128      POPC     H15S     HAL2     0.900000E-01   1.00800           0
     17054 MEMB     128      POPC     C216     CTL2    -0.180000       12.0110           0
     17055 MEMB     128      POPC     H16R     HAL2     0.900000E-01   1.00800           0
     17056 MEMB     128      POPC     H16S     HAL2     0.900000E-01   1.00800           0
     17057 MEMB     128      POPC     C217     CTL2    -0.180000       12.0110           0
     17058 MEMB     128      POPC     H17R     HAL2     0.900000E-01   1.00800           0
     17059 MEMB     128      POPC     H17S     HAL2     0.900000E-01   1.00800           0
     17060 MEMB     128      POPC     C218     CTL3    -0.270000       12.0110           0
     17061 MEMB     128      POPC     H18R     HAL3     0.900000E-01   1.00800           0
     17062 MEMB     128      POPC     H18S     HAL3     0.900000E-01   1.00800           0
     17063 MEMB     128      POPC     H18T     HAL3     0.900000E-01   1.00800           0
     17064 MEMB     128      POPC     C33      CTL2    -0.180000       12.0110           0
     17065 MEMB     128      POPC     H3X      HAL2     0.900000E-01   1.00800           0
     17066 MEMB     128      POPC     H3Y      HAL2     0.900000E-01   1.00800           0
     17067 MEMB     128      POPC     C34      CTL2    -0.180000       12.0110           0
     17068 MEMB     128      POPC     H4X      HAL2     0.900000E-01   1.00800           0
     17069 MEMB     128      POPC     H4Y      HAL2     0.900000E-01   1.00800           0
     17070 MEMB     128      POPC     C35      CTL2    -0.180000       12.0110           0
     17071 MEMB     128      POPC     H5X      HAL2     0.900000E-01   1.00800           0
     17072 MEMB     128      POPC     H5Y      HAL2     0.900000E-01   1.00800           0
     17073 MEMB     128      POPC     C36      CTL2    -0.180000       12.0110           0
     17074 MEMB     128      POPC     H6X      HAL2     0.900000E-01   1.00800           0
     17075 MEMB     128      POPC     H6Y      HAL2     0.900000E-01   1.00800           0
     17076 MEMB     128      POPC     C37      CTL2    -0.180000       12.0110           0
     17077 MEMB     128      POPC     H7X      HAL2     0.900000E-01   1.00800           0
     17078 MEMB     128      POPC     H7Y      HAL2     0.900000E-01   1.00800           0
     17079 MEMB     128      POPC     C38      CTL2    -0.180000       12.0110           0
     17080 MEMB     128      POPC     H8X      HAL2     0.900000E-01   1.00800           0
     17081 MEMB     128      POPC     H8Y      HAL2     0.900000E-01   1.00800           0
     17082 MEMB     128      POPC     C39      CTL2    -0.180000       12.0110           0
     17083 MEMB     128      POPC     H9X      HAL2     0.900000E-01   1.00800           0
     17084 MEMB     128      POPC     H9Y      HAL2     0.900000E-01   1.00800           0
     17085 MEMB     128      POPC     C310     CTL2    -0.180000       12.0110           0
     17086 MEMB     128      POPC     H10X     HAL2     0.900000E-01   1.00800           0
     17087 MEMB     128      POPC     H10Y     HAL2     0.900000E-01   1.00800           0
     17088 MEMB     128      POPC     C311     CTL2    -0.180000       12.0110           0
     17089 MEMB     128      POPC     H11X     HAL2     0.900000E-01   1.00800           0
     17090 MEMB     128      POPC     H11Y     HAL2     0.900000E-01   1.00800           0
     17091 MEMB     128      POPC     C312     CTL2    -0.180000       12.0110           0
     17092 MEMB     128      POPC     H12X     HAL2     0.900000E-01   1.00800           0
     17093 MEMB     128      POPC     H12Y     HAL2     0.900000E-01   1.00800           0
     17094 MEMB     128      POPC     C313     CTL2    -0.180000       12.0110           0
     17095 MEMB     128      POPC     H13X     HAL2     0.900000E-01   1.00800           0
     17096 MEMB     128      POPC     H13Y     HAL2     0.900000E-01   1.00800           0
     17097 MEMB     128      POPC     C314     CTL2    -0.180000       12.0110           0
     17098 MEMB     128      POPC     H14X     HAL2     0.900000E-01   1.00800           0
     17099 MEMB     128      POPC     H14Y     HAL2     0.900000E-01   1.00800           0
     17100 MEMB     128      POPC     C315     CTL2    -0.180000       12.0110           0
     17101 MEMB     128      POPC     H15X     HAL2     0.900000E-01   1.00800           0
     17102 MEMB     128      POPC     H15Y     HAL2     0.900000E-01   1.00800           0
     17103 MEMB     128      POPC     C316     CTL3    -0.270000       12.0110           0
     17104 MEMB     128      POPC     H16X     HAL3     0.900000E-01   1.00800           0
     17105 MEMB     128      POPC     H16Y     HAL3     0.900000E-01   1.00800           0
     17106 MEMB     128      POPC     H16Z     HAL3     0.900000E-01   1.00800           0
     17107 MEMB     129      POPC     N        NTL     -0.600000       14.0070           0
     17108 MEMB     129      POPC     C12      CTL2    -0.100000       12.0110           0
     17109 MEMB     129      POPC     H12A     HL       0.250000       1.00800           0
     17110 MEMB     129      POPC     H12B     HL       0.250000       1.00800           0
     17111 MEMB     129      POPC     C13      CTL5    -0.350000       12.0110           0
     17112 MEMB     129      POPC     H13A     HL       0.250000       1.00800           0
     17113 MEMB     129      POPC     H13B     HL       0.250000       1.00800           0
     17114 MEMB     129      POPC     H13C     HL       0.250000       1.00800           0
     17115 MEMB     129      POPC     C14      CTL5    -0.350000       12.0110           0
     17116 MEMB     129      POPC     H14A     HL       0.250000       1.00800           0
     17117 MEMB     129      POPC     H14B     HL       0.250000       1.00800           0
     17118 MEMB     129      POPC     H14C     HL       0.250000       1.00800           0
     17119 MEMB     129      POPC     C15      CTL5    -0.350000       12.0110           0
     17120 MEMB     129      POPC     H15A     HL       0.250000       1.00800           0
     17121 MEMB     129      POPC     H15B     HL       0.250000       1.00800           0
     17122 MEMB     129      POPC     H15C     HL       0.250000       1.00800           0
     17123 MEMB     129      POPC     C11      CTL2    -0.800000E-01   12.0110           0
     17124 MEMB     129      POPC     H11A     HAL2     0.900000E-01   1.00800           0
     17125 MEMB     129      POPC     H11B     HAL2     0.900000E-01   1.00800           0
     17126 MEMB     129      POPC     P        PL       1.500000       30.9740           0
     17127 MEMB     129      POPC     O13      O2L     -0.780000       15.9994           0
     17128 MEMB     129      POPC     O14      O2L     -0.780000       15.9994           0
     17129 MEMB     129      POPC     O12      OSLP    -0.570000       15.9994           0
     17130 MEMB     129      POPC     O11      OSLP    -0.570000       15.9994           0
     17131 MEMB     129      POPC     C1       CTL2    -0.800000E-01   12.0110           0
     17132 MEMB     129      POPC     HA       HAL2     0.900000E-01   1.00800           0
     17133 MEMB     129      POPC     HB       HAL2     0.900000E-01   1.00800           0
     17134 MEMB     129      POPC     C2       CTL1     0.170000       12.0110           0
     17135 MEMB     129      POPC     HS       HAL1     0.900000E-01   1.00800           0
     17136 MEMB     129      POPC     O21      OSL     -0.490000       15.9994           0
     17137 MEMB     129      POPC     C21      CL       0.900000       12.0110           0
     17138 MEMB     129      POPC     O22      OBL     -0.630000       15.9994           0
     17139 MEMB     129      POPC     C22      CTL2    -0.220000       12.0110           0
     17140 MEMB     129      POPC     H2R      HAL2     0.900000E-01   1.00800           0
     17141 MEMB     129      POPC     H2S      HAL2     0.900000E-01   1.00800           0
     17142 MEMB     129      POPC     C3       CTL2     0.800000E-01   12.0110           0
     17143 MEMB     129      POPC     HX       HAL2     0.900000E-01   1.00800           0
     17144 MEMB     129      POPC     HY       HAL2     0.900000E-01   1.00800           0
     17145 MEMB     129      POPC     O31      OSL     -0.490000       15.9994           0
     17146 MEMB     129      POPC     C31      CL       0.900000       12.0110           0
     17147 MEMB     129      POPC     O32      OBL     -0.630000       15.9994           0
     17148 MEMB     129      POPC     C32      CTL2    -0.220000       12.0110           0
     17149 MEMB     129      POPC     H2X      HAL2     0.900000E-01   1.00800           0
     17150 MEMB     129      POPC     H2Y      HAL2     0.900000E-01   1.00800           0
     17151 MEMB     129      POPC     C23      CTL2    -0.180000       12.0110           0
     17152 MEMB     129      POPC     H3R      HAL2     0.900000E-01   1.00800           0
     17153 MEMB     129      POPC     H3S      HAL2     0.900000E-01   1.00800           0
     17154 MEMB     129      POPC     C24      CTL2    -0.180000       12.0110           0
     17155 MEMB     129      POPC     H4R      HAL2     0.900000E-01   1.00800           0
     17156 MEMB     129      POPC     H4S      HAL2     0.900000E-01   1.00800           0
     17157 MEMB     129      POPC     C25      CTL2    -0.180000       12.0110           0
     17158 MEMB     129      POPC     H5R      HAL2     0.900000E-01   1.00800           0
     17159 MEMB     129      POPC     H5S      HAL2     0.900000E-01   1.00800           0
     17160 MEMB     129      POPC     C26      CTL2    -0.180000       12.0110           0
     17161 MEMB     129      POPC     H6R      HAL2     0.900000E-01   1.00800           0
     17162 MEMB     129      POPC     H6S      HAL2     0.900000E-01   1.00800           0
     17163 MEMB     129      POPC     C27      CTL2    -0.180000       12.0110           0
     17164 MEMB     129      POPC     H7R      HAL2     0.900000E-01   1.00800           0
     17165 MEMB     129      POPC     H7S      HAL2     0.900000E-01   1.00800           0
     17166 MEMB     129      POPC     C28      CTL2    -0.180000       12.0110           0
     17167 MEMB     129      POPC     H8R      HAL2     0.900000E-01   1.00800           0
     17168 MEMB     129      POPC     H8S      HAL2     0.900000E-01   1.00800           0
     17169 MEMB     129      POPC     C29      CEL1    -0.150000       12.0110           0
     17170 MEMB     129      POPC     H91      HEL1     0.150000       1.00800           0
     17171 MEMB     129      POPC     C210     CEL1    -0.150000       12.0110           0
     17172 MEMB     129      POPC     H101     HEL1     0.150000       1.00800           0
     17173 MEMB     129      POPC     C211     CTL2    -0.180000       12.0110           0
     17174 MEMB     129      POPC     H11R     HAL2     0.900000E-01   1.00800           0
     17175 MEMB     129      POPC     H11S     HAL2     0.900000E-01   1.00800           0
     17176 MEMB     129      POPC     C212     CTL2    -0.180000       12.0110           0
     17177 MEMB     129      POPC     H12R     HAL2     0.900000E-01   1.00800           0
     17178 MEMB     129      POPC     H12S     HAL2     0.900000E-01   1.00800           0
     17179 MEMB     129      POPC     C213     CTL2    -0.180000       12.0110           0
     17180 MEMB     129      POPC     H13R     HAL2     0.900000E-01   1.00800           0
     17181 MEMB     129      POPC     H13S     HAL2     0.900000E-01   1.00800           0
     17182 MEMB     129      POPC     C214     CTL2    -0.180000       12.0110           0
     17183 MEMB     129      POPC     H14R     HAL2     0.900000E-01   1.00800           0
     17184 MEMB     129      POPC     H14S     HAL2     0.900000E-01   1.00800           0
     17185 MEMB     129      POPC     C215     CTL2    -0.180000       12.0110           0
     17186 MEMB     129      POPC     H15R     HAL2     0.900000E-01   1.00800           0
     17187 MEMB     129      POPC     H15S     HAL2     0.900000E-01   1.00800           0
     17188 MEMB     129      POPC     C216     CTL2    -0.180000       12.0110           0
     17189 MEMB     129      POPC     H16R     HAL2     0.900000E-01   1.00800           0
     17190 MEMB     129      POPC     H16S     HAL2     0.900000E-01   1.00800           0
     17191 MEMB     129      POPC     C217     CTL2    -0.180000       12.0110           0
     17192 MEMB     129      POPC     H17R     HAL2     0.900000E-01   1.00800           0
     17193 MEMB     129      POPC     H17S     HAL2     0.900000E-01   1.00800           0
     17194 MEMB     129      POPC     C218     CTL3    -0.270000       12.0110           0
     17195 MEMB     129      POPC     H18R     HAL3     0.900000E-01   1.00800           0
     17196 MEMB     129      POPC     H18S     HAL3     0.900000E-01   1.00800           0
     17197 MEMB     129      POPC     H18T     HAL3     0.900000E-01   1.00800           0
     17198 MEMB     129      POPC     C33      CTL2    -0.180000       12.0110           0
     17199 MEMB     129      POPC     H3X      HAL2     0.900000E-01   1.00800           0
     17200 MEMB     129      POPC     H3Y      HAL2     0.900000E-01   1.00800           0
     17201 MEMB     129      POPC     C34      CTL2    -0.180000       12.0110           0
     17202 MEMB     129      POPC     H4X      HAL2     0.900000E-01   1.00800           0
     17203 MEMB     129      POPC     H4Y      HAL2     0.900000E-01   1.00800           0
     17204 MEMB     129      POPC     C35      CTL2    -0.180000       12.0110           0
     17205 MEMB     129      POPC     H5X      HAL2     0.900000E-01   1.00800           0
     17206 MEMB     129      POPC     H5Y      HAL2     0.900000E-01   1.00800           0
     17207 MEMB     129      POPC     C36      CTL2    -0.180000       12.0110           0
     17208 MEMB     129      POPC     H6X      HAL2     0.900000E-01   1.00800           0
     17209 MEMB     129      POPC     H6Y      HAL2     0.900000E-01   1.00800           0
     17210 MEMB     129      POPC     C37      CTL2    -0.180000       12.0110           0
     17211 MEMB     129      POPC     H7X      HAL2     0.900000E-01   1.00800           0
     17212 MEMB     129      POPC     H7Y      HAL2     0.900000E-01   1.00800           0
     17213 MEMB     129      POPC     C38      CTL2    -0.180000       12.0110           0
     17214 MEMB     129      POPC     H8X      HAL2     0.900000E-01   1.00800           0
     17215 MEMB     129      POPC     H8Y      HAL2     0.900000E-01   1.00800           0
     17216 MEMB     129      POPC     C39      CTL2    -0.180000       12.0110           0
     17217 MEMB     129      POPC     H9X      HAL2     0.900000E-01   1.00800           0
     17218 MEMB     129      POPC     H9Y      HAL2     0.900000E-01   1.00800           0
     17219 MEMB     129      POPC     C310     CTL2    -0.180000       12.0110           0
     17220 MEMB     129      POPC     H10X     HAL2     0.900000E-01   1.00800           0
     17221 MEMB     129      POPC     H10Y     HAL2     0.900000E-01   1.00800           0
     17222 MEMB     129      POPC     C311     CTL2    -0.180000       12.0110           0
     17223 MEMB     129      POPC     H11X     HAL2     0.900000E-01   1.00800           0
     17224 MEMB     129      POPC     H11Y     HAL2     0.900000E-01   1.00800           0
     17225 MEMB     129      POPC     C312     CTL2    -0.180000       12.0110           0
     17226 MEMB     129      POPC     H12X     HAL2     0.900000E-01   1.00800           0
     17227 MEMB     129      POPC     H12Y     HAL2     0.900000E-01   1.00800           0
     17228 MEMB     129      POPC     C313     CTL2    -0.180000       12.0110           0
     17229 MEMB     129      POPC     H13X     HAL2     0.900000E-01   1.00800           0
     17230 MEMB     129      POPC     H13Y     HAL2     0.900000E-01   1.00800           0
     17231 MEMB     129      POPC     C314     CTL2    -0.180000       12.0110           0
     17232 MEMB     129      POPC     H14X     HAL2     0.900000E-01   1.00800           0
     17233 MEMB     129      POPC     H14Y     HAL2     0.900000E-01   1.00800           0
     17234 MEMB     129      POPC     C315     CTL2    -0.180000       12.0110           0
     17235 MEMB     129      POPC     H15X     HAL2     0.900000E-01   1.00800           0
     17236 MEMB     129      POPC     H15Y     HAL2     0.900000E-01   1.00800           0
     17237 MEMB     129      POPC     C316     CTL3    -0.270000       12.0110           0
     17238 MEMB     129      POPC     H16X     HAL3     0.900000E-01   1.00800           0
     17239 MEMB     129      POPC     H16Y     HAL3     0.900000E-01   1.00800           0
     17240 MEMB     129      POPC     H16Z     HAL3     0.900000E-01   1.00800           0
     17241 MEMB     130      POPC     N        NTL     -0.600000       14.0070           0
     17242 MEMB     130      POPC     C12      CTL2    -0.100000       12.0110           0
     17243 MEMB     130      POPC     H12A     HL       0.250000       1.00800           0
     17244 MEMB     130      POPC     H12B     HL       0.250000       1.00800           0
     17245 MEMB     130      POPC     C13      CTL5    -0.350000       12.0110           0
     17246 MEMB     130      POPC     H13A     HL       0.250000       1.00800           0
     17247 MEMB     130      POPC     H13B     HL       0.250000       1.00800           0
     17248 MEMB     130      POPC     H13C     HL       0.250000       1.00800           0
     17249 MEMB     130      POPC     C14      CTL5    -0.350000       12.0110           0
     17250 MEMB     130      POPC     H14A     HL       0.250000       1.00800           0
     17251 MEMB     130      POPC     H14B     HL       0.250000       1.00800           0
     17252 MEMB     130      POPC     H14C     HL       0.250000       1.00800           0
     17253 MEMB     130      POPC     C15      CTL5    -0.350000       12.0110           0
     17254 MEMB     130      POPC     H15A     HL       0.250000       1.00800           0
     17255 MEMB     130      POPC     H15B     HL       0.250000       1.00800           0
     17256 MEMB     130      POPC     H15C     HL       0.250000       1.00800           0
     17257 MEMB     130      POPC     C11      CTL2    -0.800000E-01   12.0110           0
     17258 MEMB     130      POPC     H11A     HAL2     0.900000E-01   1.00800           0
     17259 MEMB     130      POPC     H11B     HAL2     0.900000E-01   1.00800           0
     17260 MEMB     130      POPC     P        PL       1.500000       30.9740           0
     17261 MEMB     130      POPC     O13      O2L     -0.780000       15.9994           0
     17262 MEMB     130      POPC     O14      O2L     -0.780000       15.9994           0
     17263 MEMB     130      POPC     O12      OSLP    -0.570000       15.9994           0
     17264 MEMB     130      POPC     O11      OSLP    -0.570000       15.9994           0
     17265 MEMB     130      POPC     C1       CTL2    -0.800000E-01   12.0110           0
     17266 MEMB     130      POPC     HA       HAL2     0.900000E-01   1.00800           0
     17267 MEMB     130      POPC     HB       HAL2     0.900000E-01   1.00800           0
     17268 MEMB     130      POPC     C2       CTL1     0.170000       12.0110           0
     17269 MEMB     130      POPC     HS       HAL1     0.900000E-01   1.00800           0
     17270 MEMB     130      POPC     O21      OSL     -0.490000       15.9994           0
     17271 MEMB     130      POPC     C21      CL       0.900000       12.0110           0
     17272 MEMB     130      POPC     O22      OBL     -0.630000       15.9994           0
     17273 MEMB     130      POPC     C22      CTL2    -0.220000       12.0110           0
     17274 MEMB     130      POPC     H2R      HAL2     0.900000E-01   1.00800           0
     17275 MEMB     130      POPC     H2S      HAL2     0.900000E-01   1.00800           0
     17276 MEMB     130      POPC     C3       CTL2     0.800000E-01   12.0110           0
     17277 MEMB     130      POPC     HX       HAL2     0.900000E-01   1.00800           0
     17278 MEMB     130      POPC     HY       HAL2     0.900000E-01   1.00800           0
     17279 MEMB     130      POPC     O31      OSL     -0.490000       15.9994           0
     17280 MEMB     130      POPC     C31      CL       0.900000       12.0110           0
     17281 MEMB     130      POPC     O32      OBL     -0.630000       15.9994           0
     17282 MEMB     130      POPC     C32      CTL2    -0.220000       12.0110           0
     17283 MEMB     130      POPC     H2X      HAL2     0.900000E-01   1.00800           0
     17284 MEMB     130      POPC     H2Y      HAL2     0.900000E-01   1.00800           0
     17285 MEMB     130      POPC     C23      CTL2    -0.180000       12.0110           0
     17286 MEMB     130      POPC     H3R      HAL2     0.900000E-01   1.00800           0
     17287 MEMB     130      POPC     H3S      HAL2     0.900000E-01   1.00800           0
     17288 MEMB     130      POPC     C24      CTL2    -0.180000       12.0110           0
     17289 MEMB     130      POPC     H4R      HAL2     0.900000E-01   1.00800           0
     17290 MEMB     130      POPC     H4S      HAL2     0.900000E-01   1.00800           0
     17291 MEMB     130      POPC     C25      CTL2    -0.180000       12.0110           0
     17292 MEMB     130      POPC     H5R      HAL2     0.900000E-01   1.00800           0
     17293 MEMB     130      POPC     H5S      HAL2     0.900000E-01   1.00800           0
     17294 MEMB     130      POPC     C26      CTL2    -0.180000       12.0110           0
     17295 MEMB     130      POPC     H6R      HAL2     0.900000E-01   1.00800           0
     17296 MEMB     130      POPC     H6S      HAL2     0.900000E-01   1.00800           0
     17297 MEMB     130      POPC     C27      CTL2    -0.180000       12.0110           0
     17298 MEMB     130      POPC     H7R      HAL2     0.900000E-01   1.00800           0
     17299 MEMB     130      POPC     H7S      HAL2     0.900000E-01   1.00800           0
     17300 MEMB     130      POPC     C28      CTL2    -0.180000       12.0110           0
     17301 MEMB     130      POPC     H8R      HAL2     0.900000E-01   1.00800           0
     17302 MEMB     130      POPC     H8S      HAL2     0.900000E-01   1.00800           0
     17303 MEMB     130      POPC     C29      CEL1    -0.150000       12.0110           0
     17304 MEMB     130      POPC     H91      HEL1     0.150000       1.00800           0
     17305 MEMB     130      POPC     C210     CEL1    -0.150000       12.0110           0
     17306 MEMB     130      POPC     H101     HEL1     0.150000       1.00800           0
     17307 MEMB     130      POPC     C211     CTL2    -0.180000       12.0110           0
     17308 MEMB     130      POPC     H11R     HAL2     0.900000E-01   1.00800           0
     17309 MEMB     130      POPC     H11S     HAL2     0.900000E-01   1.00800           0
     17310 MEMB     130      POPC     C212     CTL2    -0.180000       12.0110           0
     17311 MEMB     130      POPC     H12R     HAL2     0.900000E-01   1.00800           0
     17312 MEMB     130      POPC     H12S     HAL2     0.900000E-01   1.00800           0
     17313 MEMB     130      POPC     C213     CTL2    -0.180000       12.0110           0
     17314 MEMB     130      POPC     H13R     HAL2     0.900000E-01   1.00800           0
     17315 MEMB     130      POPC     H13S     HAL2     0.900000E-01   1.00800           0
     17316 MEMB     130      POPC     C214     CTL2    -0.180000       12.0110           0
     17317 MEMB     130      POPC     H14R     HAL2     0.900000E-01   1.00800           0
     17318 MEMB     130      POPC     H14S     HAL2     0.900000E-01   1.00800           0
     17319 MEMB     130      POPC     C215     CTL2    -0.180000       12.0110           0
     17320 MEMB     130      POPC     H15R     HAL2     0.900000E-01   1.00800           0
     17321 MEMB     130      POPC     H15S     HAL2     0.900000E-01   1.00800           0
     17322 MEMB     130      POPC     C216     CTL2    -0.180000       12.0110           0
     17323 MEMB     130      POPC     H16R     HAL2     0.900000E-01   1.00800           0
     17324 MEMB     130      POPC     H16S     HAL2     0.900000E-01   1.00800           0
     17325 MEMB     130      POPC     C217     CTL2    -0.180000       12.0110           0
     17326 MEMB     130      POPC     H17R     HAL2     0.900000E-01   1.00800           0
     17327 MEMB     130      POPC     H17S     HAL2     0.900000E-01   1.00800           0
     17328 MEMB     130      POPC     C218     CTL3    -0.270000       12.0110           0
     17329 MEMB     130      POPC     H18R     HAL3     0.900000E-01   1.00800           0
     17330 MEMB     130      POPC     H18S     HAL3     0.900000E-01   1.00800           0
     17331 MEMB     130      POPC     H18T     HAL3     0.900000E-01   1.00800           0
     17332 MEMB     130      POPC     C33      CTL2    -0.180000       12.0110           0
     17333 MEMB     130      POPC     H3X      HAL2     0.900000E-01   1.00800           0
     17334 MEMB     130      POPC     H3Y      HAL2     0.900000E-01   1.00800           0
     17335 MEMB     130      POPC     C34      CTL2    -0.180000       12.0110           0
     17336 MEMB     130      POPC     H4X      HAL2     0.900000E-01   1.00800           0
     17337 MEMB     130      POPC     H4Y      HAL2     0.900000E-01   1.00800           0
     17338 MEMB     130      POPC     C35      CTL2    -0.180000       12.0110           0
     17339 MEMB     130      POPC     H5X      HAL2     0.900000E-01   1.00800           0
     17340 MEMB     130      POPC     H5Y      HAL2     0.900000E-01   1.00800           0
     17341 MEMB     130      POPC     C36      CTL2    -0.180000       12.0110           0
     17342 MEMB     130      POPC     H6X      HAL2     0.900000E-01   1.00800           0
     17343 MEMB     130      POPC     H6Y      HAL2     0.900000E-01   1.00800           0
     17344 MEMB     130      POPC     C37      CTL2    -0.180000       12.0110           0
     17345 MEMB     130      POPC     H7X      HAL2     0.900000E-01   1.00800           0
     17346 MEMB     130      POPC     H7Y      HAL2     0.900000E-01   1.00800           0
     17347 MEMB     130      POPC     C38      CTL2    -0.180000       12.0110           0
     17348 MEMB     130      POPC     H8X      HAL2     0.900000E-01   1.00800           0
     17349 MEMB     130      POPC     H8Y      HAL2     0.900000E-01   1.00800           0
     17350 MEMB     130      POPC     C39      CTL2    -0.180000       12.0110           0
     17351 MEMB     130      POPC     H9X      HAL2     0.900000E-01   1.00800           0
     17352 MEMB     130      POPC     H9Y      HAL2     0.900000E-01   1.00800           0
     17353 MEMB     130      POPC     C310     CTL2    -0.180000       12.0110           0
     17354 MEMB     130      POPC     H10X     HAL2     0.900000E-01   1.00800           0
     17355 MEMB     130      POPC     H10Y     HAL2     0.900000E-01   1.00800           0
     17356 MEMB     130      POPC     C311     CTL2    -0.180000       12.0110           0
     17357 MEMB     130      POPC     H11X     HAL2     0.900000E-01   1.00800           0
     17358 MEMB     130      POPC     H11Y     HAL2     0.900000E-01   1.00800           0
     17359 MEMB     130      POPC     C312     CTL2    -0.180000       12.0110           0
     17360 MEMB     130      POPC     H12X     HAL2     0.900000E-01   1.00800           0
     17361 MEMB     130      POPC     H12Y     HAL2     0.900000E-01   1.00800           0
     17362 MEMB     130      POPC     C313     CTL2    -0.180000       12.0110           0
     17363 MEMB     130      POPC     H13X     HAL2     0.900000E-01   1.00800           0
     17364 MEMB     130      POPC     H13Y     HAL2     0.900000E-01   1.00800           0
     17365 MEMB     130      POPC     C314     CTL2    -0.180000       12.0110           0
     17366 MEMB     130      POPC     H14X     HAL2     0.900000E-01   1.00800           0
     17367 MEMB     130      POPC     H14Y     HAL2     0.900000E-01   1.00800           0
     17368 MEMB     130      POPC     C315     CTL2    -0.180000       12.0110           0
     17369 MEMB     130      POPC     H15X     HAL2     0.900000E-01   1.00800           0
     17370 MEMB     130      POPC     H15Y     HAL2     0.900000E-01   1.00800           0
     17371 MEMB     130      POPC     C316     CTL3    -0.270000       12.0110           0
     17372 MEMB     130      POPC     H16X     HAL3     0.900000E-01   1.00800           0
     17373 MEMB     130      POPC     H16Y     HAL3     0.900000E-01   1.00800           0
     17374 MEMB     130      POPC     H16Z     HAL3     0.900000E-01   1.00800           0
     17375 TIP3     1        TIP3     OH2      OT      -0.834000       15.9994           0
     17376 TIP3     1        TIP3     H1       HT       0.417000       1.00800           0
     17377 TIP3     1        TIP3     H2       HT       0.417000       1.00800           0
     17378 TIP3     2        TIP3     OH2      OT      -0.834000       15.9994           0
     17379 TIP3     2        TIP3     H1       HT       0.417000       1.00800           0
     17380 TIP3     2        TIP3     H2       HT       0.417000       1.00800           0
     17381 TIP3     3        TIP3     OH2      OT      -0.834000       15.9994           0
     17382 TIP3     3        TIP3     H1       HT       0.417000       1.00800           0
     17383 TIP3     3        TIP3     H2       HT       0.417000       1.00800           0
     17384 TIP3     4        TIP3     OH2      OT      -0.834000       15.9994           0
     17385 TIP3     4        TIP3     H1       HT       0.417000       1.00800           0
     17386 TIP3     4        TIP3     H2       HT       0.417000       1.00800           0
     17387 TIP3     5        TIP3     OH2      OT      -0.834000       15.9994           0
     17388 TIP3     5        TIP3     H1       HT       0.417000       1.00800           0
     17389 TIP3     5        TIP3     H2       HT       0.417000       1.00800           0
     17390 TIP3     6        TIP3     OH2      OT      -0.834000       15.9994           0
     17391 TIP3     6        TIP3     H1       HT       0.417000       1.00800           0
     17392 TIP3     6        TIP3     H2       HT       0.417000       1.00800           0
     17393 TIP3     7        TIP3     OH2      OT      -0.834000       15.9994           0
     17394 TIP3     7        TIP3     H1       HT       0.417000       1.00800           0
     17395 TIP3     7        TIP3     H2       HT       0.417000       1.00800           0
     17396 TIP3     8        TIP3     OH2      OT      -0.834000       15.9994           0
     17397 TIP3     8        TIP3     H1       HT       0.417000       1.00800           0
     17398 TIP3     8        TIP3     H2       HT       0.417000       1.00800           0
     17399 TIP3     9        TIP3     OH2      OT      -0.834000       15.9994           0
     17400 TIP3     9        TIP3     H1       HT       0.417000       1.00800           0
     17401 TIP3     9        TIP3     H2       HT       0.417000       1.00800           0
     17402 TIP3     10       TIP3     OH2      OT      -0.834000       15.9994           0
     17403 TIP3     10       TIP3     H1       HT       0.417000       1.00800           0
     17404 TIP3     10       TIP3     H2       HT       0.417000       1.00800           0
     17405 TIP3     11       TIP3     OH2      OT      -0.834000       15.9994           0
     17406 TIP3     11       TIP3     H1       HT       0.417000       1.00800           0
     17407 TIP3     11       TIP3     H2       HT       0.417000       1.00800           0
     17408 TIP3     12       TIP3     OH2      OT      -0.834000       15.9994           0
     17409 TIP3     12       TIP3     H1       HT       0.417000       1.00800           0
     17410 TIP3     12       TIP3     H2       HT       0.417000       1.00800           0
     17411 TIP3     13       TIP3     OH2      OT      -0.834000       15.9994           0
     17412 TIP3     13       TIP3     H1       HT       0.417000       1.00800           0
     17413 TIP3     13       TIP3     H2       HT       0.417000       1.00800           0
     17414 TIP3     14       TIP3     OH2      OT      -0.834000       15.9994           0
     17415 TIP3     14       TIP3     H1       HT       0.417000       1.00800           0
     17416 TIP3     14       TIP3     H2       HT       0.417000       1.00800           0
     17417 TIP3     15       TIP3     OH2      OT      -0.834000       15.9994           0
     17418 TIP3     15       TIP3     H1       HT       0.417000       1.00800           0
     17419 TIP3     15       TIP3     H2       HT       0.417000       1.00800           0
     17420 TIP3     16       TIP3     OH2      OT      -0.834000       15.9994           0
     17421 TIP3     16       TIP3     H1       HT       0.417000       1.00800           0
     17422 TIP3     16       TIP3     H2       HT       0.417000       1.00800           0
     17423 TIP3     17       TIP3     OH2      OT      -0.834000       15.9994           0
     17424 TIP3     17       TIP3     H1       HT       0.417000       1.00800           0
     17425 TIP3     17       TIP3     H2       HT       0.417000       1.00800           0
     17426 TIP3     18       TIP3     OH2      OT      -0.834000       15.9994           0
     17427 TIP3     18       TIP3     H1       HT       0.417000       1.00800           0
     17428 TIP3     18       TIP3     H2       HT       0.417000       1.00800           0
     17429 TIP3     19       TIP3     OH2      OT      -0.834000       15.9994           0
     17430 TIP3     19       TIP3     H1       HT       0.417000       1.00800           0
     17431 TIP3     19       TIP3     H2       HT       0.417000       1.00800           0
     17432 TIP3     20       TIP3     OH2      OT      -0.834000       15.9994           0
     17433 TIP3     20       TIP3     H1       HT       0.417000       1.00800           0
     17434 TIP3     20       TIP3     H2       HT       0.417000       1.00800           0
     17435 TIP3     21       TIP3     OH2      OT      -0.834000       15.9994           0
     17436 TIP3     21       TIP3     H1       HT       0.417000       1.00800           0
     17437 TIP3     21       TIP3     H2       HT       0.417000       1.00800           0
     17438 TIP3     22       TIP3     OH2      OT      -0.834000       15.9994           0
     17439 TIP3     22       TIP3     H1       HT       0.417000       1.00800           0
     17440 TIP3     22       TIP3     H2       HT       0.417000       1.00800           0
     17441 TIP3     23       TIP3     OH2      OT      -0.834000       15.9994           0
     17442 TIP3     23       TIP3     H1       HT       0.417000       1.00800           0
     17443 TIP3     23       TIP3     H2       HT       0.417000       1.00800           0
     17444 TIP3     24       TIP3     OH2      OT      -0.834000       15.9994           0
     17445 TIP3     24       TIP3     H1       HT       0.417000       1.00800           0
     17446 TIP3     24       TIP3     H2       HT       0.417000       1.00800           0
     17447 TIP3     25       TIP3     OH2      OT      -0.834000       15.9994           0
     17448 TIP3     25       TIP3     H1       HT       0.417000       1.00800           0
     17449 TIP3     25       TIP3     H2       HT       0.417000       1.00800           0
     17450 TIP3     26       TIP3     OH2      OT      -0.834000       15.9994           0
     17451 TIP3     26       TIP3     H1       HT       0.417000       1.00800           0
     17452 TIP3     26       TIP3     H2       HT       0.417000       1.00800           0
     17453 TIP3     27       TIP3     OH2      OT      -0.834000       15.9994           0
     17454 TIP3     27       TIP3     H1       HT       0.417000       1.00800           0
     17455 TIP3     27       TIP3     H2       HT       0.417000       1.00800           0
     17456 TIP3     28       TIP3     OH2      OT      -0.834000       15.9994           0
     17457 TIP3     28       TIP3     H1       HT       0.417000       1.00800           0
     17458 TIP3     28       TIP3     H2       HT       0.417000       1.00800           0
     17459 TIP3     29       TIP3     OH2      OT      -0.834000       15.9994           0
     17460 TIP3     29       TIP3     H1       HT       0.417000       1.00800           0
     17461 TIP3     29       TIP3     H2       HT       0.417000       1.00800           0
     17462 TIP3     30       TIP3     OH2      OT      -0.834000       15.9994           0
     17463 TIP3     30       TIP3     H1       HT       0.417000       1.00800           0
     17464 TIP3     30       TIP3     H2       HT       0.417000       1.00800           0
     17465 TIP3     31       TIP3     OH2      OT      -0.834000       15.9994           0
     17466 TIP3     31       TIP3     H1       HT       0.417000       1.00800           0
     17467 TIP3     31       TIP3     H2       HT       0.417000       1.00800           0
     17468 TIP3     32       TIP3     OH2      OT      -0.834000       15.9994           0
     17469 TIP3     32       TIP3     H1       HT       0.417000       1.00800           0
     17470 TIP3     32       TIP3     H2       HT       0.417000       1.00800           0
     17471 TIP3     33       TIP3     OH2      OT      -0.834000       15.9994           0
     17472 TIP3     33       TIP3     H1       HT       0.417000       1.00800           0
     17473 TIP3     33       TIP3     H2       HT       0.417000       1.00800           0
     17474 TIP3     34       TIP3     OH2      OT      -0.834000       15.9994           0
     17475 TIP3     34       TIP3     H1       HT       0.417000       1.00800           0
     17476 TIP3     34       TIP3     H2       HT       0.417000       1.00800           0
     17477 TIP3     35       TIP3     OH2      OT      -0.834000       15.9994           0
     17478 TIP3     35       TIP3     H1       HT       0.417000       1.00800           0
     17479 TIP3     35       TIP3     H2       HT       0.417000       1.00800           0
     17480 TIP3     36       TIP3     OH2      OT      -0.834000       15.9994           0
     17481 TIP3     36       TIP3     H1       HT       0.417000       1.00800           0
     17482 TIP3     36       TIP3     H2       HT       0.417000       1.00800           0
     17483 TIP3     37       TIP3     OH2      OT      -0.834000       15.9994           0
     17484 TIP3     37       TIP3     H1       HT       0.417000       1.00800           0
     17485 TIP3     37       TIP3     H2       HT       0.417000       1.00800           0
     17486 TIP3     38       TIP3     OH2      OT      -0.834000       15.9994           0
     17487 TIP3     38       TIP3     H1       HT       0.417000       1.00800           0
     17488 TIP3     38       TIP3     H2       HT       0.417000       1.00800           0
     17489 TIP3     39       TIP3     OH2      OT      -0.834000       15.9994           0
     17490 TIP3     39       TIP3     H1       HT       0.417000       1.00800           0
     17491 TIP3     39       TIP3     H2       HT       0.417000       1.00800           0
     17492 TIP3     40       TIP3     OH2      OT      -0.834000       15.9994           0
     17493 TIP3     40       TIP3     H1       HT       0.417000       1.00800           0
     17494 TIP3     40       TIP3     H2       HT       0.417000       1.00800           0
     17495 TIP3     41       TIP3     OH2      OT      -0.834000       15.9994           0
     17496 TIP3     41       TIP3     H1       HT       0.417000       1.00800           0
     17497 TIP3     41       TIP3     H2       HT       0.417000       1.00800           0
     17498 TIP3     42       TIP3     OH2      OT      -0.834000       15.9994           0
     17499 TIP3     42       TIP3     H1       HT       0.417000       1.00800           0
     17500 TIP3     42       TIP3     H2       HT       0.417000       1.00800           0
     17501 TIP3     43       TIP3     OH2      OT      -0.834000       15.9994           0
     17502 TIP3     43       TIP3     H1       HT       0.417000       1.00800           0
     17503 TIP3     43       TIP3     H2       HT       0.417000       1.00800           0
     17504 TIP3     44       TIP3     OH2      OT      -0.834000       15.9994           0
     17505 TIP3     44       TIP3     H1       HT       0.417000       1.00800           0
     17506 TIP3     44       TIP3     H2       HT       0.417000       1.00800           0
     17507 TIP3     45       TIP3     OH2      OT      -0.834000       15.9994           0
     17508 TIP3     45       TIP3     H1       HT       0.417000       1.00800           0
     17509 TIP3     45       TIP3     H2       HT       0.417000       1.00800           0
     17510 TIP3     46       TIP3     OH2      OT      -0.834000       15.9994           0
     17511 TIP3     46       TIP3     H1       HT       0.417000       1.00800           0
     17512 TIP3     46       TIP3     H2       HT       0.417000       1.00800           0
     17513 TIP3     47       TIP3     OH2      OT      -0.834000       15.9994           0
     17514 TIP3     47       TIP3     H1       HT       0.417000       1.00800           0
     17515 TIP3     47       TIP3     H2       HT       0.417000       1.00800           0
     17516 TIP3     48       TIP3     OH2      OT      -0.834000       15.9994           0
     17517 TIP3     48       TIP3     H1       HT       0.417000       1.00800           0
     17518 TIP3     48       TIP3     H2       HT       0.417000       1.00800           0
     17519 TIP3     49       TIP3     OH2      OT      -0.834000       15.9994           0
     17520 TIP3     49       TIP3     H1       HT       0.417000       1.00800           0
     17521 TIP3     49       TIP3     H2       HT       0.417000       1.00800           0
     17522 TIP3     50       TIP3     OH2      OT      -0.834000       15.9994           0
     17523 TIP3     50       TIP3     H1       HT       0.417000       1.00800           0
     17524 TIP3     50       TIP3     H2       HT       0.417000       1.00800           0
     17525 TIP3     51       TIP3     OH2      OT      -0.834000       15.9994           0
     17526 TIP3     51       TIP3     H1       HT       0.417000       1.00800           0
     17527 TIP3     51       TIP3     H2       HT       0.417000       1.00800           0
     17528 TIP3     52       TIP3     OH2      OT      -0.834000       15.9994           0
     17529 TIP3     52       TIP3     H1       HT       0.417000       1.00800           0
     17530 TIP3     52       TIP3     H2       HT       0.417000       1.00800           0
     17531 TIP3     53       TIP3     OH2      OT      -0.834000       15.9994           0
     17532 TIP3     53       TIP3     H1       HT       0.417000       1.00800           0
     17533 TIP3     53       TIP3     H2       HT       0.417000       1.00800           0
     17534 TIP3     54       TIP3     OH2      OT      -0.834000       15.9994           0
     17535 TIP3     54       TIP3     H1       HT       0.417000       1.00800           0
     17536 TIP3     54       TIP3     H2       HT       0.417000       1.00800           0
     17537 TIP3     55       TIP3     OH2      OT      -0.834000       15.9994           0
     17538 TIP3     55       TIP3     H1       HT       0.417000       1.00800           0
     17539 TIP3     55       TIP3     H2       HT       0.417000       1.00800           0
     17540 TIP3     56       TIP3     OH2      OT      -0.834000       15.9994           0
     17541 TIP3     56       TIP3     H1       HT       0.417000       1.00800           0
     17542 TIP3     56       TIP3     H2       HT       0.417000       1.00800           0
     17543 TIP3     57       TIP3     OH2      OT      -0.834000       15.9994           0
     17544 TIP3     57       TIP3     H1       HT       0.417000       1.00800           0
     17545 TIP3     57       TIP3     H2       HT       0.417000       1.00800           0
     17546 TIP3     58       TIP3     OH2      OT      -0.834000       15.9994           0
     17547 TIP3     58       TIP3     H1       HT       0.417000       1.00800           0
     17548 TIP3     58       TIP3     H2       HT       0.417000       1.00800           0
     17549 TIP3     59       TIP3     OH2      OT      -0.834000       15.9994           0
     17550 TIP3     59       TIP3     H1       HT       0.417000       1.00800           0
     17551 TIP3     59       TIP3     H2       HT       0.417000       1.00800           0
     17552 TIP3     60       TIP3     OH2      OT      -0.834000       15.9994           0
     17553 TIP3     60       TIP3     H1       HT       0.417000       1.00800           0
     17554 TIP3     60       TIP3     H2       HT       0.417000       1.00800           0
     17555 TIP3     61       TIP3     OH2      OT      -0.834000       15.9994           0
     17556 TIP3     61       TIP3     H1       HT       0.417000       1.00800           0
     17557 TIP3     61       TIP3     H2       HT       0.417000       1.00800           0
     17558 TIP3     62       TIP3     OH2      OT      -0.834000       15.9994           0
     17559 TIP3     62       TIP3     H1       HT       0.417000       1.00800           0
     17560 TIP3     62       TIP3     H2       HT       0.417000       1.00800           0
     17561 TIP3     63       TIP3     OH2      OT      -0.834000       15.9994           0
     17562 TIP3     63       TIP3     H1       HT       0.417000       1.00800           0
     17563 TIP3     63       TIP3     H2       HT       0.417000       1.00800           0
     17564 TIP3     64       TIP3     OH2      OT      -0.834000       15.9994           0
     17565 TIP3     64       TIP3     H1       HT       0.417000       1.00800           0
     17566 TIP3     64       TIP3     H2       HT       0.417000       1.00800           0
     17567 TIP3     65       TIP3     OH2      OT      -0.834000       15.9994           0
     17568 TIP3     65       TIP3     H1       HT       0.417000       1.00800           0
     17569 TIP3     65       TIP3     H2       HT       0.417000       1.00800           0
     17570 TIP3     66       TIP3     OH2      OT      -0.834000       15.9994           0
     17571 TIP3     66       TIP3     H1       HT       0.417000       1.00800           0
     17572 TIP3     66       TIP3     H2       HT       0.417000       1.00800           0
     17573 TIP3     67       TIP3     OH2      OT      -0.834000       15.9994           0
     17574 TIP3     67       TIP3     H1       HT       0.417000       1.00800           0
     17575 TIP3     67       TIP3     H2       HT       0.417000       1.00800           0
     17576 TIP3     68       TIP3     OH2      OT      -0.834000       15.9994           0
     17577 TIP3     68       TIP3     H1       HT       0.417000       1.00800           0
     17578 TIP3     68       TIP3     H2       HT       0.417000       1.00800           0
     17579 TIP3     69       TIP3     OH2      OT      -0.834000       15.9994           0
     17580 TIP3     69       TIP3     H1       HT       0.417000       1.00800           0
     17581 TIP3     69       TIP3     H2       HT       0.417000       1.00800           0
     17582 TIP3     70       TIP3     OH2      OT      -0.834000       15.9994           0
     17583 TIP3     70       TIP3     H1       HT       0.417000       1.00800           0
     17584 TIP3     70       TIP3     H2       HT       0.417000       1.00800           0
     17585 TIP3     71       TIP3     OH2      OT      -0.834000       15.9994           0
     17586 TIP3     71       TIP3     H1       HT       0.417000       1.00800           0
     17587 TIP3     71       TIP3     H2       HT       0.417000       1.00800           0
     17588 TIP3     72       TIP3     OH2      OT      -0.834000       15.9994           0
     17589 TIP3     72       TIP3     H1       HT       0.417000       1.00800           0
     17590 TIP3     72       TIP3     H2       HT       0.417000       1.00800           0
     17591 TIP3     73       TIP3     OH2      OT      -0.834000       15.9994           0
     17592 TIP3     73       TIP3     H1       HT       0.417000       1.00800           0
     17593 TIP3     73       TIP3     H2       HT       0.417000       1.00800           0
     17594 TIP3     74       TIP3     OH2      OT      -0.834000       15.9994           0
     17595 TIP3     74       TIP3     H1       HT       0.417000       1.00800           0
     17596 TIP3     74       TIP3     H2       HT       0.417000       1.00800           0
     17597 TIP3     75       TIP3     OH2      OT      -0.834000       15.9994           0
     17598 TIP3     75       TIP3     H1       HT       0.417000       1.00800           0
     17599 TIP3     75       TIP3     H2       HT       0.417000       1.00800           0
     17600 TIP3     76       TIP3     OH2      OT      -0.834000       15.9994           0
     17601 TIP3     76       TIP3     H1       HT       0.417000       1.00800           0
     17602 TIP3     76       TIP3     H2       HT       0.417000       1.00800           0
     17603 TIP3     77       TIP3     OH2      OT      -0.834000       15.9994           0
     17604 TIP3     77       TIP3     H1       HT       0.417000       1.00800           0
     17605 TIP3     77       TIP3     H2       HT       0.417000       1.00800           0
     17606 TIP3     78       TIP3     OH2      OT      -0.834000       15.9994           0
     17607 TIP3     78       TIP3     H1       HT       0.417000       1.00800           0
     17608 TIP3     78       TIP3     H2       HT       0.417000       1.00800           0
     17609 TIP3     79       TIP3     OH2      OT      -0.834000       15.9994           0
     17610 TIP3     79       TIP3     H1       HT       0.417000       1.00800           0
     17611 TIP3     79       TIP3     H2       HT       0.417000       1.00800           0
     17612 TIP3     80       TIP3     OH2      OT      -0.834000       15.9994           0
     17613 TIP3     80       TIP3     H1       HT       0.417000       1.00800           0
     17614 TIP3     80       TIP3     H2       HT       0.417000       1.00800           0
     17615 TIP3     81       TIP3     OH2      OT      -0.834000       15.9994           0
     17616 TIP3     81       TIP3     H1       HT       0.417000       1.00800           0
     17617 TIP3     81       TIP3     H2       HT       0.417000       1.00800           0
     17618 TIP3     82       TIP3     OH2      OT      -0.834000       15.9994           0
     17619 TIP3     82       TIP3     H1       HT       0.417000       1.00800           0
     17620 TIP3     82       TIP3     H2       HT       0.417000       1.00800           0
     17621 TIP3     83       TIP3     OH2      OT      -0.834000       15.9994           0
     17622 TIP3     83       TIP3     H1       HT       0.417000       1.00800           0
     17623 TIP3     83       TIP3     H2       HT       0.417000       1.00800           0
     17624 TIP3     84       TIP3     OH2      OT      -0.834000       15.9994           0
     17625 TIP3     84       TIP3     H1       HT       0.417000       1.00800           0
     17626 TIP3     84       TIP3     H2       HT       0.417000       1.00800           0
     17627 TIP3     85       TIP3     OH2      OT      -0.834000       15.9994           0
     17628 TIP3     85       TIP3     H1       HT       0.417000       1.00800           0
     17629 TIP3     85       TIP3     H2       HT       0.417000       1.00800           0
     17630 TIP3     86       TIP3     OH2      OT      -0.834000       15.9994           0
     17631 TIP3     86       TIP3     H1       HT       0.417000       1.00800           0
     17632 TIP3     86       TIP3     H2       HT       0.417000       1.00800           0
     17633 TIP3     87       TIP3     OH2      OT      -0.834000       15.9994           0
     17634 TIP3     87       TIP3     H1       HT       0.417000       1.00800           0
     17635 TIP3     87       TIP3     H2       HT       0.417000       1.00800           0
     17636 TIP3     88       TIP3     OH2      OT      -0.834000       15.9994           0
     17637 TIP3     88       TIP3     H1       HT       0.417000       1.00800           0
     17638 TIP3     88       TIP3     H2       HT       0.417000       1.00800           0
     17639 TIP3     89       TIP3     OH2      OT      -0.834000       15.9994           0
     17640 TIP3     89       TIP3     H1       HT       0.417000       1.00800           0
     17641 TIP3     89       TIP3     H2       HT       0.417000       1.00800           0
     17642 TIP3     90       TIP3     OH2      OT      -0.834000       15.9994           0
     17643 TIP3     90       TIP3     H1       HT       0.417000       1.00800           0
     17644 TIP3     90       TIP3     H2       HT       0.417000       1.00800           0
     17645 TIP3     91       TIP3     OH2      OT      -0.834000       15.9994           0
     17646 TIP3     91       TIP3     H1       HT       0.417000       1.00800           0
     17647 TIP3     91       TIP3     H2       HT       0.417000       1.00800           0
     17648 TIP3     92       TIP3     OH2      OT      -0.834000       15.9994           0
     17649 TIP3     92       TIP3     H1       HT       0.417000       1.00800           0
     17650 TIP3     92       TIP3     H2       HT       0.417000       1.00800           0
     17651 TIP3     93       TIP3     OH2      OT      -0.834000       15.9994           0
     17652 TIP3     93       TIP3     H1       HT       0.417000       1.00800           0
     17653 TIP3     93       TIP3     H2       HT       0.417000       1.00800           0
     17654 TIP3     94       TIP3     OH2      OT      -0.834000       15.9994           0
     17655 TIP3     94       TIP3     H1       HT       0.417000       1.00800           0
     17656 TIP3     94       TIP3     H2       HT       0.417000       1.00800           0
     17657 TIP3     95       TIP3     OH2      OT      -0.834000       15.9994           0
     17658 TIP3     95       TIP3     H1       HT       0.417000       1.00800           0
     17659 TIP3     95       TIP3     H2       HT       0.417000       1.00800           0
     17660 TIP3     96       TIP3     OH2      OT      -0.834000       15.9994           0
     17661 TIP3     96       TIP3     H1       HT       0.417000       1.00800           0
     17662 TIP3     96       TIP3     H2       HT       0.417000       1.00800           0
     17663 TIP3     97       TIP3     OH2      OT      -0.834000       15.9994           0
     17664 TIP3     97       TIP3     H1       HT       0.417000       1.00800           0
     17665 TIP3     97       TIP3     H2       HT       0.417000       1.00800           0
     17666 TIP3     98       TIP3     OH2      OT      -0.834000       15.9994           0
     17667 TIP3     98       TIP3     H1       HT       0.417000       1.00800           0
     17668 TIP3     98       TIP3     H2       HT       0.417000       1.00800           0
     17669 TIP3     99       TIP3     OH2      OT      -0.834000       15.9994           0
     17670 TIP3     99       TIP3     H1       HT       0.417000       1.00800           0
     17671 TIP3     99       TIP3     H2       HT       0.417000       1.00800           0
     17672 TIP3     100      TIP3     OH2      OT      -0.834000       15.9994           0
     17673 TIP3     100      TIP3     H1       HT       0.417000       1.00800           0
     17674 TIP3     100      TIP3     H2       HT       0.417000       1.00800           0
     17675 TIP3     101      TIP3     OH2      OT      -0.834000       15.9994           0
     17676 TIP3     101      TIP3     H1       HT       0.417000       1.00800           0
     17677 TIP3     101      TIP3     H2       HT       0.417000       1.00800           0
     17678 TIP3     102      TIP3     OH2      OT      -0.834000       15.9994           0
     17679 TIP3     102      TIP3     H1       HT       0.417000       1.00800           0
     17680 TIP3     102      TIP3     H2       HT       0.417000       1.00800           0
     17681 TIP3     103      TIP3     OH2      OT      -0.834000       15.9994           0
     17682 TIP3     103      TIP3     H1       HT       0.417000       1.00800           0
     17683 TIP3     103      TIP3     H2       HT       0.417000       1.00800           0
     17684 TIP3     104      TIP3     OH2      OT      -0.834000       15.9994           0
     17685 TIP3     104      TIP3     H1       HT       0.417000       1.00800           0
     17686 TIP3     104      TIP3     H2       HT       0.417000       1.00800           0
     17687 TIP3     105      TIP3     OH2      OT      -0.834000       15.9994           0
     17688 TIP3     105      TIP3     H1       HT       0.417000       1.00800           0
     17689 TIP3     105      TIP3     H2       HT       0.417000       1.00800           0
     17690 TIP3     106      TIP3     OH2      OT      -0.834000       15.9994           0
     17691 TIP3     106      TIP3     H1       HT       0.417000       1.00800           0
     17692 TIP3     106      TIP3     H2       HT       0.417000       1.00800           0
     17693 TIP3     107      TIP3     OH2      OT      -0.834000       15.9994           0
     17694 TIP3     107      TIP3     H1       HT       0.417000       1.00800           0
     17695 TIP3     107      TIP3     H2       HT       0.417000       1.00800           0
     17696 TIP3     108      TIP3     OH2      OT      -0.834000       15.9994           0
     17697 TIP3     108      TIP3     H1       HT       0.417000       1.00800           0
     17698 TIP3     108      TIP3     H2       HT       0.417000       1.00800           0
     17699 TIP3     109      TIP3     OH2      OT      -0.834000       15.9994           0
     17700 TIP3     109      TIP3     H1       HT       0.417000       1.00800           0
     17701 TIP3     109      TIP3     H2       HT       0.417000       1.00800           0
     17702 TIP3     110      TIP3     OH2      OT      -0.834000       15.9994           0
     17703 TIP3     110      TIP3     H1       HT       0.417000       1.00800           0
     17704 TIP3     110      TIP3     H2       HT       0.417000       1.00800           0
     17705 TIP3     111      TIP3     OH2      OT      -0.834000       15.9994           0
     17706 TIP3     111      TIP3     H1       HT       0.417000       1.00800           0
     17707 TIP3     111      TIP3     H2       HT       0.417000       1.00800           0
     17708 TIP3     112      TIP3     OH2      OT      -0.834000       15.9994           0
     17709 TIP3     112      TIP3     H1       HT       0.417000       1.00800           0
     17710 TIP3     112      TIP3     H2       HT       0.417000       1.00800           0
     17711 TIP3     113      TIP3     OH2      OT      -0.834000       15.9994           0
     17712 TIP3     113      TIP3     H1       HT       0.417000       1.00800           0
     17713 TIP3     113      TIP3     H2       HT       0.417000       1.00800           0
     17714 TIP3     114      TIP3     OH2      OT      -0.834000       15.9994           0
     17715 TIP3     114      TIP3     H1       HT       0.417000       1.00800           0
     17716 TIP3     114      TIP3     H2       HT       0.417000       1.00800           0
     17717 TIP3     115      TIP3     OH2      OT      -0.834000       15.9994           0
     17718 TIP3     115      TIP3     H1       HT       0.417000       1.00800           0
     17719 TIP3     115      TIP3     H2       HT       0.417000       1.00800           0
     17720 TIP3     116      TIP3     OH2      OT      -0.834000       15.9994           0
     17721 TIP3     116      TIP3     H1       HT       0.417000       1.00800           0
     17722 TIP3     116      TIP3     H2       HT       0.417000       1.00800           0
     17723 TIP3     117      TIP3     OH2      OT      -0.834000       15.9994           0
     17724 TIP3     117      TIP3     H1       HT       0.417000       1.00800           0
     17725 TIP3     117      TIP3     H2       HT       0.417000       1.00800           0
     17726 TIP3     118      TIP3     OH2      OT      -0.834000       15.9994           0
     17727 TIP3     118      TIP3     H1       HT       0.417000       1.00800           0
     17728 TIP3     118      TIP3     H2       HT       0.417000       1.00800           0
     17729 TIP3     119      TIP3     OH2      OT      -0.834000       15.9994           0
     17730 TIP3     119      TIP3     H1       HT       0.417000       1.00800           0
     17731 TIP3     119      TIP3     H2       HT       0.417000       1.00800           0
     17732 TIP3     120      TIP3     OH2      OT      -0.834000       15.9994           0
     17733 TIP3     120      TIP3     H1       HT       0.417000       1.00800           0
     17734 TIP3     120      TIP3     H2       HT       0.417000       1.00800           0
     17735 TIP3     121      TIP3     OH2      OT      -0.834000       15.9994           0
     17736 TIP3     121      TIP3     H1       HT       0.417000       1.00800           0
     17737 TIP3     121      TIP3     H2       HT       0.417000       1.00800           0
     17738 TIP3     122      TIP3     OH2      OT      -0.834000       15.9994           0
     17739 TIP3     122      TIP3     H1       HT       0.417000       1.00800           0
     17740 TIP3     122      TIP3     H2       HT       0.417000       1.00800           0
     17741 TIP3     123      TIP3     OH2      OT      -0.834000       15.9994           0
     17742 TIP3     123      TIP3     H1       HT       0.417000       1.00800           0
     17743 TIP3     123      TIP3     H2       HT       0.417000       1.00800           0
     17744 TIP3     124      TIP3     OH2      OT      -0.834000       15.9994           0
     17745 TIP3     124      TIP3     H1       HT       0.417000       1.00800           0
     17746 TIP3     124      TIP3     H2       HT       0.417000       1.00800           0
     17747 TIP3     125      TIP3     OH2      OT      -0.834000       15.9994           0
     17748 TIP3     125      TIP3     H1       HT       0.417000       1.00800           0
     17749 TIP3     125      TIP3     H2       HT       0.417000       1.00800           0
     17750 TIP3     126      TIP3     OH2      OT      -0.834000       15.9994           0
     17751 TIP3     126      TIP3     H1       HT       0.417000       1.00800           0
     17752 TIP3     126      TIP3     H2       HT       0.417000       1.00800           0
     17753 TIP3     127      TIP3     OH2      OT      -0.834000       15.9994           0
     17754 TIP3     127      TIP3     H1       HT       0.417000       1.00800           0
     17755 TIP3     127      TIP3     H2       HT       0.417000       1.00800           0
     17756 TIP3     128      TIP3     OH2      OT      -0.834000       15.9994           0
     17757 TIP3     128      TIP3     H1       HT       0.417000       1.00800           0
     17758 TIP3     128      TIP3     H2       HT       0.417000       1.00800           0
     17759 TIP3     129      TIP3     OH2      OT      -0.834000       15.9994           0
     17760 TIP3     129      TIP3     H1       HT       0.417000       1.00800           0
     17761 TIP3     129      TIP3     H2       HT       0.417000       1.00800           0
     17762 TIP3     130      TIP3     OH2      OT      -0.834000       15.9994           0
     17763 TIP3     130      TIP3     H1       HT       0.417000       1.00800           0
     17764 TIP3     130      TIP3     H2       HT       0.417000       1.00800           0
     17765 TIP3     131      TIP3     OH2      OT      -0.834000       15.9994           0
     17766 TIP3     131      TIP3     H1       HT       0.417000       1.00800           0
     17767 TIP3     131      TIP3     H2       HT       0.417000       1.00800           0
     17768 TIP3     132      TIP3     OH2      OT      -0.834000       15.9994           0
     17769 TIP3     132      TIP3     H1       HT       0.417000       1.00800           0
     17770 TIP3     132      TIP3     H2       HT       0.417000       1.00800           0
     17771 TIP3     133      TIP3     OH2      OT      -0.834000       15.9994           0
     17772 TIP3     133      TIP3     H1       HT       0.417000       1.00800           0
     17773 TIP3     133      TIP3     H2       HT       0.417000       1.00800           0
     17774 TIP3     134      TIP3     OH2      OT      -0.834000       15.9994           0
     17775 TIP3     134      TIP3     H1       HT       0.417000       1.00800           0
     17776 TIP3     134      TIP3     H2       HT       0.417000       1.00800           0
     17777 TIP3     135      TIP3     OH2      OT      -0.834000       15.9994           0
     17778 TIP3     135      TIP3     H1       HT       0.417000       1.00800           0
     17779 TIP3     135      TIP3     H2       HT       0.417000       1.00800           0
     17780 TIP3     136      TIP3     OH2      OT      -0.834000       15.9994           0
     17781 TIP3     136      TIP3     H1       HT       0.417000       1.00800           0
     17782 TIP3     136      TIP3     H2       HT       0.417000       1.00800           0
     17783 TIP3     137      TIP3     OH2      OT      -0.834000       15.9994           0
     17784 TIP3     137      TIP3     H1       HT       0.417000       1.00800           0
     17785 TIP3     137      TIP3     H2       HT       0.417000       1.00800           0
     17786 TIP3     138      TIP3     OH2      OT      -0.834000       15.9994           0
     17787 TIP3     138      TIP3     H1       HT       0.417000       1.00800           0
     17788 TIP3     138      TIP3     H2       HT       0.417000       1.00800           0
     17789 TIP3     139      TIP3     OH2      OT      -0.834000       15.9994           0
     17790 TIP3     139      TIP3     H1       HT       0.417000       1.00800           0
     17791 TIP3     139      TIP3     H2       HT       0.417000       1.00800           0
     17792 TIP3     140      TIP3     OH2      OT      -0.834000       15.9994           0
     17793 TIP3     140      TIP3     H1       HT       0.417000       1.00800           0
     17794 TIP3     140      TIP3     H2       HT       0.417000       1.00800           0
     17795 TIP3     141      TIP3     OH2      OT      -0.834000       15.9994           0
     17796 TIP3     141      TIP3     H1       HT       0.417000       1.00800           0
     17797 TIP3     141      TIP3     H2       HT       0.417000       1.00800           0
     17798 TIP3     142      TIP3     OH2      OT      -0.834000       15.9994           0
     17799 TIP3     142      TIP3     H1       HT       0.417000       1.00800           0
     17800 TIP3     142      TIP3     H2       HT       0.417000       1.00800           0
     17801 TIP3     143      TIP3     OH2      OT      -0.834000       15.9994           0
     17802 TIP3     143      TIP3     H1       HT       0.417000       1.00800           0
     17803 TIP3     143      TIP3     H2       HT       0.417000       1.00800           0
     17804 TIP3     144      TIP3     OH2      OT      -0.834000       15.9994           0
     17805 TIP3     144      TIP3     H1       HT       0.417000       1.00800           0
     17806 TIP3     144      TIP3     H2       HT       0.417000       1.00800           0
     17807 TIP3     145      TIP3     OH2      OT      -0.834000       15.9994           0
     17808 TIP3     145      TIP3     H1       HT       0.417000       1.00800           0
     17809 TIP3     145      TIP3     H2       HT       0.417000       1.00800           0
     17810 TIP3     146      TIP3     OH2      OT      -0.834000       15.9994           0
     17811 TIP3     146      TIP3     H1       HT       0.417000       1.00800           0
     17812 TIP3     146      TIP3     H2       HT       0.417000       1.00800           0
     17813 TIP3     147      TIP3     OH2      OT      -0.834000       15.9994           0
     17814 TIP3     147      TIP3     H1       HT       0.417000       1.00800           0
     17815 TIP3     147      TIP3     H2       HT       0.417000       1.00800           0
     17816 TIP3     148      TIP3     OH2      OT      -0.834000       15.9994           0
     17817 TIP3     148      TIP3     H1       HT       0.417000       1.00800           0
     17818 TIP3     148      TIP3     H2       HT       0.417000       1.00800           0
     17819 TIP3     149      TIP3     OH2      OT      -0.834000       15.9994           0
     17820 TIP3     149      TIP3     H1       HT       0.417000       1.00800           0
     17821 TIP3     149      TIP3     H2       HT       0.417000       1.00800           0
     17822 TIP3     150      TIP3     OH2      OT      -0.834000       15.9994           0
     17823 TIP3     150      TIP3     H1       HT       0.417000       1.00800           0
     17824 TIP3     150      TIP3     H2       HT       0.417000       1.00800           0
     17825 TIP3     151      TIP3     OH2      OT      -0.834000       15.9994           0
     17826 TIP3     151      TIP3     H1       HT       0.417000       1.00800           0
     17827 TIP3     151      TIP3     H2       HT       0.417000       1.00800           0
     17828 TIP3     152      TIP3     OH2      OT      -0.834000       15.9994           0
     17829 TIP3     152      TIP3     H1       HT       0.417000       1.00800           0
     17830 TIP3     152      TIP3     H2       HT       0.417000       1.00800           0
     17831 TIP3     153      TIP3     OH2      OT      -0.834000       15.9994           0
     17832 TIP3     153      TIP3     H1       HT       0.417000       1.00800           0
     17833 TIP3     153      TIP3     H2       HT       0.417000       1.00800           0
     17834 TIP3     154      TIP3     OH2      OT      -0.834000       15.9994           0
     17835 TIP3     154      TIP3     H1       HT       0.417000       1.00800           0
     17836 TIP3     154      TIP3     H2       HT       0.417000       1.00800           0
     17837 TIP3     155      TIP3     OH2      OT      -0.834000       15.9994           0
     17838 TIP3     155      TIP3     H1       HT       0.417000       1.00800           0
     17839 TIP3     155      TIP3     H2       HT       0.417000       1.00800           0
     17840 TIP3     156      TIP3     OH2      OT      -0.834000       15.9994           0
     17841 TIP3     156      TIP3     H1       HT       0.417000       1.00800           0
     17842 TIP3     156      TIP3     H2       HT       0.417000       1.00800           0
     17843 TIP3     157      TIP3     OH2      OT      -0.834000       15.9994           0
     17844 TIP3     157      TIP3     H1       HT       0.417000       1.00800           0
     17845 TIP3     157      TIP3     H2       HT       0.417000       1.00800           0
     17846 TIP3     158      TIP3     OH2      OT      -0.834000       15.9994           0
     17847 TIP3     158      TIP3     H1       HT       0.417000       1.00800           0
     17848 TIP3     158      TIP3     H2       HT       0.417000       1.00800           0
     17849 TIP3     159      TIP3     OH2      OT      -0.834000       15.9994           0
     17850 TIP3     159      TIP3     H1       HT       0.417000       1.00800           0
     17851 TIP3     159      TIP3     H2       HT       0.417000       1.00800           0
     17852 TIP3     160      TIP3     OH2      OT      -0.834000       15.9994           0
     17853 TIP3     160      TIP3     H1       HT       0.417000       1.00800           0
     17854 TIP3     160      TIP3     H2       HT       0.417000       1.00800           0
     17855 TIP3     161      TIP3     OH2      OT      -0.834000       15.9994           0
     17856 TIP3     161      TIP3     H1       HT       0.417000       1.00800           0
     17857 TIP3     161      TIP3     H2       HT       0.417000       1.00800           0
     17858 TIP3     162      TIP3     OH2      OT      -0.834000       15.9994           0
     17859 TIP3     162      TIP3     H1       HT       0.417000       1.00800           0
     17860 TIP3     162      TIP3     H2       HT       0.417000       1.00800           0
     17861 TIP3     163      TIP3     OH2      OT      -0.834000       15.9994           0
     17862 TIP3     163      TIP3     H1       HT       0.417000       1.00800           0
     17863 TIP3     163      TIP3     H2       HT       0.417000       1.00800           0
     17864 TIP3     164      TIP3     OH2      OT      -0.834000       15.9994           0
     17865 TIP3     164      TIP3     H1       HT       0.417000       1.00800           0
     17866 TIP3     164      TIP3     H2       HT       0.417000       1.00800           0
     17867 TIP3     165      TIP3     OH2      OT      -0.834000       15.9994           0
     17868 TIP3     165      TIP3     H1       HT       0.417000       1.00800           0
     17869 TIP3     165      TIP3     H2       HT       0.417000       1.00800           0
     17870 TIP3     166      TIP3     OH2      OT      -0.834000       15.9994           0
     17871 TIP3     166      TIP3     H1       HT       0.417000       1.00800           0
     17872 TIP3     166      TIP3     H2       HT       0.417000       1.00800           0
     17873 TIP3     167      TIP3     OH2      OT      -0.834000       15.9994           0
     17874 TIP3     167      TIP3     H1       HT       0.417000       1.00800           0
     17875 TIP3     167      TIP3     H2       HT       0.417000       1.00800           0
     17876 TIP3     168      TIP3     OH2      OT      -0.834000       15.9994           0
     17877 TIP3     168      TIP3     H1       HT       0.417000       1.00800           0
     17878 TIP3     168      TIP3     H2       HT       0.417000       1.00800           0
     17879 TIP3     169      TIP3     OH2      OT      -0.834000       15.9994           0
     17880 TIP3     169      TIP3     H1       HT       0.417000       1.00800           0
     17881 TIP3     169      TIP3     H2       HT       0.417000       1.00800           0
     17882 TIP3     170      TIP3     OH2      OT      -0.834000       15.9994           0
     17883 TIP3     170      TIP3     H1       HT       0.417000       1.00800           0
     17884 TIP3     170      TIP3     H2       HT       0.417000       1.00800           0
     17885 TIP3     171      TIP3     OH2      OT      -0.834000       15.9994           0
     17886 TIP3     171      TIP3     H1       HT       0.417000       1.00800           0
     17887 TIP3     171      TIP3     H2       HT       0.417000       1.00800           0
     17888 TIP3     172      TIP3     OH2      OT      -0.834000       15.9994           0
     17889 TIP3     172      TIP3     H1       HT       0.417000       1.00800           0
     17890 TIP3     172      TIP3     H2       HT       0.417000       1.00800           0
     17891 TIP3     173      TIP3     OH2      OT      -0.834000       15.9994           0
     17892 TIP3     173      TIP3     H1       HT       0.417000       1.00800           0
     17893 TIP3     173      TIP3     H2       HT       0.417000       1.00800           0
     17894 TIP3     174      TIP3     OH2      OT      -0.834000       15.9994           0
     17895 TIP3     174      TIP3     H1       HT       0.417000       1.00800           0
     17896 TIP3     174      TIP3     H2       HT       0.417000       1.00800           0
     17897 TIP3     175      TIP3     OH2      OT      -0.834000       15.9994           0
     17898 TIP3     175      TIP3     H1       HT       0.417000       1.00800           0
     17899 TIP3     175      TIP3     H2       HT       0.417000       1.00800           0
     17900 TIP3     176      TIP3     OH2      OT      -0.834000       15.9994           0
     17901 TIP3     176      TIP3     H1       HT       0.417000       1.00800           0
     17902 TIP3     176      TIP3     H2       HT       0.417000       1.00800           0
     17903 TIP3     177      TIP3     OH2      OT      -0.834000       15.9994           0
     17904 TIP3     177      TIP3     H1       HT       0.417000       1.00800           0
     17905 TIP3     177      TIP3     H2       HT       0.417000       1.00800           0
     17906 TIP3     178      TIP3     OH2      OT      -0.834000       15.9994           0
     17907 TIP3     178      TIP3     H1       HT       0.417000       1.00800           0
     17908 TIP3     178      TIP3     H2       HT       0.417000       1.00800           0
     17909 TIP3     179      TIP3     OH2      OT      -0.834000       15.9994           0
     17910 TIP3     179      TIP3     H1       HT       0.417000       1.00800           0
     17911 TIP3     179      TIP3     H2       HT       0.417000       1.00800           0
     17912 TIP3     180      TIP3     OH2      OT      -0.834000       15.9994           0
     17913 TIP3     180      TIP3     H1       HT       0.417000       1.00800           0
     17914 TIP3     180      TIP3     H2       HT       0.417000       1.00800           0
     17915 TIP3     181      TIP3     OH2      OT      -0.834000       15.9994           0
     17916 TIP3     181      TIP3     H1       HT       0.417000       1.00800           0
     17917 TIP3     181      TIP3     H2       HT       0.417000       1.00800           0
     17918 TIP3     182      TIP3     OH2      OT      -0.834000       15.9994           0
     17919 TIP3     182      TIP3     H1       HT       0.417000       1.00800           0
     17920 TIP3     182      TIP3     H2       HT       0.417000       1.00800           0
     17921 TIP3     183      TIP3     OH2      OT      -0.834000       15.9994           0
     17922 TIP3     183      TIP3     H1       HT       0.417000       1.00800           0
     17923 TIP3     183      TIP3     H2       HT       0.417000       1.00800           0
     17924 TIP3     184      TIP3     OH2      OT      -0.834000       15.9994           0
     17925 TIP3     184      TIP3     H1       HT       0.417000       1.00800           0
     17926 TIP3     184      TIP3     H2       HT       0.417000       1.00800           0
     17927 TIP3     185      TIP3     OH2      OT      -0.834000       15.9994           0
     17928 TIP3     185      TIP3     H1       HT       0.417000       1.00800           0
     17929 TIP3     185      TIP3     H2       HT       0.417000       1.00800           0
     17930 TIP3     186      TIP3     OH2      OT      -0.834000       15.9994           0
     17931 TIP3     186      TIP3     H1       HT       0.417000       1.00800           0
     17932 TIP3     186      TIP3     H2       HT       0.417000       1.00800           0
     17933 TIP3     187      TIP3     OH2      OT      -0.834000       15.9994           0
     17934 TIP3     187      TIP3     H1       HT       0.417000       1.00800           0
     17935 TIP3     187      TIP3     H2       HT       0.417000       1.00800           0
     17936 TIP3     188      TIP3     OH2      OT      -0.834000       15.9994           0
     17937 TIP3     188      TIP3     H1       HT       0.417000       1.00800           0
     17938 TIP3     188      TIP3     H2       HT       0.417000       1.00800           0
     17939 TIP3     189      TIP3     OH2      OT      -0.834000       15.9994           0
     17940 TIP3     189      TIP3     H1       HT       0.417000       1.00800           0
     17941 TIP3     189      TIP3     H2       HT       0.417000       1.00800           0
     17942 TIP3     190      TIP3     OH2      OT      -0.834000       15.9994           0
     17943 TIP3     190      TIP3     H1       HT       0.417000       1.00800           0
     17944 TIP3     190      TIP3     H2       HT       0.417000       1.00800           0
     17945 TIP3     191      TIP3     OH2      OT      -0.834000       15.9994           0
     17946 TIP3     191      TIP3     H1       HT       0.417000       1.00800           0
     17947 TIP3     191      TIP3     H2       HT       0.417000       1.00800           0
     17948 TIP3     192      TIP3     OH2      OT      -0.834000       15.9994           0
     17949 TIP3     192      TIP3     H1       HT       0.417000       1.00800           0
     17950 TIP3     192      TIP3     H2       HT       0.417000       1.00800           0
     17951 TIP3     193      TIP3     OH2      OT      -0.834000       15.9994           0
     17952 TIP3     193      TIP3     H1       HT       0.417000       1.00800           0
     17953 TIP3     193      TIP3     H2       HT       0.417000       1.00800           0
     17954 TIP3     194      TIP3     OH2      OT      -0.834000       15.9994           0
     17955 TIP3     194      TIP3     H1       HT       0.417000       1.00800           0
     17956 TIP3     194      TIP3     H2       HT       0.417000       1.00800           0
     17957 TIP3     195      TIP3     OH2      OT      -0.834000       15.9994           0
     17958 TIP3     195      TIP3     H1       HT       0.417000       1.00800           0
     17959 TIP3     195      TIP3     H2       HT       0.417000       1.00800           0
     17960 TIP3     196      TIP3     OH2      OT      -0.834000       15.9994           0
     17961 TIP3     196      TIP3     H1       HT       0.417000       1.00800           0
     17962 TIP3     196      TIP3     H2       HT       0.417000       1.00800           0
     17963 TIP3     197      TIP3     OH2      OT      -0.834000       15.9994           0
     17964 TIP3     197      TIP3     H1       HT       0.417000       1.00800           0
     17965 TIP3     197      TIP3     H2       HT       0.417000       1.00800           0
     17966 TIP3     198      TIP3     OH2      OT      -0.834000       15.9994           0
     17967 TIP3     198      TIP3     H1       HT       0.417000       1.00800           0
     17968 TIP3     198      TIP3     H2       HT       0.417000       1.00800           0
     17969 TIP3     199      TIP3     OH2      OT      -0.834000       15.9994           0
     17970 TIP3     199      TIP3     H1       HT       0.417000       1.00800           0
     17971 TIP3     199      TIP3     H2       HT       0.417000       1.00800           0
     17972 TIP3     200      TIP3     OH2      OT      -0.834000       15.9994           0
     17973 TIP3     200      TIP3     H1       HT       0.417000       1.00800           0
     17974 TIP3     200      TIP3     H2       HT       0.417000       1.00800           0
     17975 TIP3     201      TIP3     OH2      OT      -0.834000       15.9994           0
     17976 TIP3     201      TIP3     H1       HT       0.417000       1.00800           0
     17977 TIP3     201      TIP3     H2       HT       0.417000       1.00800           0
     17978 TIP3     202      TIP3     OH2      OT      -0.834000       15.9994           0
     17979 TIP3     202      TIP3     H1       HT       0.417000       1.00800           0
     17980 TIP3     202      TIP3     H2       HT       0.417000       1.00800           0
     17981 TIP3     203      TIP3     OH2      OT      -0.834000       15.9994           0
     17982 TIP3     203      TIP3     H1       HT       0.417000       1.00800           0
     17983 TIP3     203      TIP3     H2       HT       0.417000       1.00800           0
     17984 TIP3     204      TIP3     OH2      OT      -0.834000       15.9994           0
     17985 TIP3     204      TIP3     H1       HT       0.417000       1.00800           0
     17986 TIP3     204      TIP3     H2       HT       0.417000       1.00800           0
     17987 TIP3     205      TIP3     OH2      OT      -0.834000       15.9994           0
     17988 TIP3     205      TIP3     H1       HT       0.417000       1.00800           0
     17989 TIP3     205      TIP3     H2       HT       0.417000       1.00800           0
     17990 TIP3     206      TIP3     OH2      OT      -0.834000       15.9994           0
     17991 TIP3     206      TIP3     H1       HT       0.417000       1.00800           0
     17992 TIP3     206      TIP3     H2       HT       0.417000       1.00800           0
     17993 TIP3     207      TIP3     OH2      OT      -0.834000       15.9994           0
     17994 TIP3     207      TIP3     H1       HT       0.417000       1.00800           0
     17995 TIP3     207      TIP3     H2       HT       0.417000       1.00800           0
     17996 TIP3     208      TIP3     OH2      OT      -0.834000       15.9994           0
     17997 TIP3     208      TIP3     H1       HT       0.417000       1.00800           0
     17998 TIP3     208      TIP3     H2       HT       0.417000       1.00800           0
     17999 TIP3     209      TIP3     OH2      OT      -0.834000       15.9994           0
     18000 TIP3     209      TIP3     H1       HT       0.417000       1.00800           0
     18001 TIP3     209      TIP3     H2       HT       0.417000       1.00800           0
     18002 TIP3     210      TIP3     OH2      OT      -0.834000       15.9994           0
     18003 TIP3     210      TIP3     H1       HT       0.417000       1.00800           0
     18004 TIP3     210      TIP3     H2       HT       0.417000       1.00800           0
     18005 TIP3     211      TIP3     OH2      OT      -0.834000       15.9994           0
     18006 TIP3     211      TIP3     H1       HT       0.417000       1.00800           0
     18007 TIP3     211      TIP3     H2       HT       0.417000       1.00800           0
     18008 TIP3     212      TIP3     OH2      OT      -0.834000       15.9994           0
     18009 TIP3     212      TIP3     H1       HT       0.417000       1.00800           0
     18010 TIP3     212      TIP3     H2       HT       0.417000       1.00800           0
     18011 TIP3     213      TIP3     OH2      OT      -0.834000       15.9994           0
     18012 TIP3     213      TIP3     H1       HT       0.417000       1.00800           0
     18013 TIP3     213      TIP3     H2       HT       0.417000       1.00800           0
     18014 TIP3     214      TIP3     OH2      OT      -0.834000       15.9994           0
     18015 TIP3     214      TIP3     H1       HT       0.417000       1.00800           0
     18016 TIP3     214      TIP3     H2       HT       0.417000       1.00800           0
     18017 TIP3     215      TIP3     OH2      OT      -0.834000       15.9994           0
     18018 TIP3     215      TIP3     H1       HT       0.417000       1.00800           0
     18019 TIP3     215      TIP3     H2       HT       0.417000       1.00800           0
     18020 TIP3     216      TIP3     OH2      OT      -0.834000       15.9994           0
     18021 TIP3     216      TIP3     H1       HT       0.417000       1.00800           0
     18022 TIP3     216      TIP3     H2       HT       0.417000       1.00800           0
     18023 TIP3     217      TIP3     OH2      OT      -0.834000       15.9994           0
     18024 TIP3     217      TIP3     H1       HT       0.417000       1.00800           0
     18025 TIP3     217      TIP3     H2       HT       0.417000       1.00800           0
     18026 TIP3     218      TIP3     OH2      OT      -0.834000       15.9994           0
     18027 TIP3     218      TIP3     H1       HT       0.417000       1.00800           0
     18028 TIP3     218      TIP3     H2       HT       0.417000       1.00800           0
     18029 TIP3     219      TIP3     OH2      OT      -0.834000       15.9994           0
     18030 TIP3     219      TIP3     H1       HT       0.417000       1.00800           0
     18031 TIP3     219      TIP3     H2       HT       0.417000       1.00800           0
     18032 TIP3     220      TIP3     OH2      OT      -0.834000       15.9994           0
     18033 TIP3     220      TIP3     H1       HT       0.417000       1.00800           0
     18034 TIP3     220      TIP3     H2       HT       0.417000       1.00800           0
     18035 TIP3     221      TIP3     OH2      OT      -0.834000       15.9994           0
     18036 TIP3     221      TIP3     H1       HT       0.417000       1.00800           0
     18037 TIP3     221      TIP3     H2       HT       0.417000       1.00800           0
     18038 TIP3     222      TIP3     OH2      OT      -0.834000       15.9994           0
     18039 TIP3     222      TIP3     H1       HT       0.417000       1.00800           0
     18040 TIP3     222      TIP3     H2       HT       0.417000       1.00800           0
     18041 TIP3     223      TIP3     OH2      OT      -0.834000       15.9994           0
     18042 TIP3     223      TIP3     H1       HT       0.417000       1.00800           0
     18043 TIP3     223      TIP3     H2       HT       0.417000       1.00800           0
     18044 TIP3     224      TIP3     OH2      OT      -0.834000       15.9994           0
     18045 TIP3     224      TIP3     H1       HT       0.417000       1.00800           0
     18046 TIP3     224      TIP3     H2       HT       0.417000       1.00800           0
     18047 TIP3     225      TIP3     OH2      OT      -0.834000       15.9994           0
     18048 TIP3     225      TIP3     H1       HT       0.417000       1.00800           0
     18049 TIP3     225      TIP3     H2       HT       0.417000       1.00800           0
     18050 TIP3     226      TIP3     OH2      OT      -0.834000       15.9994           0
     18051 TIP3     226      TIP3     H1       HT       0.417000       1.00800           0
     18052 TIP3     226      TIP3     H2       HT       0.417000       1.00800           0
     18053 TIP3     227      TIP3     OH2      OT      -0.834000       15.9994           0
     18054 TIP3     227      TIP3     H1       HT       0.417000       1.00800           0
     18055 TIP3     227      TIP3     H2       HT       0.417000       1.00800           0
     18056 TIP3     228      TIP3     OH2      OT      -0.834000       15.9994           0
     18057 TIP3     228      TIP3     H1       HT       0.417000       1.00800           0
     18058 TIP3     228      TIP3     H2       HT       0.417000       1.00800           0
     18059 TIP3     229      TIP3     OH2      OT      -0.834000       15.9994           0
     18060 TIP3     229      TIP3     H1       HT       0.417000       1.00800           0
     18061 TIP3     229      TIP3     H2       HT       0.417000       1.00800           0
     18062 TIP3     230      TIP3     OH2      OT      -0.834000       15.9994           0
     18063 TIP3     230      TIP3     H1       HT       0.417000       1.00800           0
     18064 TIP3     230      TIP3     H2       HT       0.417000       1.00800           0
     18065 TIP3     231      TIP3     OH2      OT      -0.834000       15.9994           0
     18066 TIP3     231      TIP3     H1       HT       0.417000       1.00800           0
     18067 TIP3     231      TIP3     H2       HT       0.417000       1.00800           0
     18068 TIP3     232      TIP3     OH2      OT      -0.834000       15.9994           0
     18069 TIP3     232      TIP3     H1       HT       0.417000       1.00800           0
     18070 TIP3     232      TIP3     H2       HT       0.417000       1.00800           0
     18071 TIP3     233      TIP3     OH2      OT      -0.834000       15.9994           0
     18072 TIP3     233      TIP3     H1       HT       0.417000       1.00800           0
     18073 TIP3     233      TIP3     H2       HT       0.417000       1.00800           0
     18074 TIP3     234      TIP3     OH2      OT      -0.834000       15.9994           0
     18075 TIP3     234      TIP3     H1       HT       0.417000       1.00800           0
     18076 TIP3     234      TIP3     H2       HT       0.417000       1.00800           0
     18077 TIP3     235      TIP3     OH2      OT      -0.834000       15.9994           0
     18078 TIP3     235      TIP3     H1       HT       0.417000       1.00800           0
     18079 TIP3     235      TIP3     H2       HT       0.417000       1.00800           0
     18080 TIP3     236      TIP3     OH2      OT      -0.834000       15.9994           0
     18081 TIP3     236      TIP3     H1       HT       0.417000       1.00800           0
     18082 TIP3     236      TIP3     H2       HT       0.417000       1.00800           0
     18083 TIP3     237      TIP3     OH2      OT      -0.834000       15.9994           0
     18084 TIP3     237      TIP3     H1       HT       0.417000       1.00800           0
     18085 TIP3     237      TIP3     H2       HT       0.417000       1.00800           0
     18086 TIP3     238      TIP3     OH2      OT      -0.834000       15.9994           0
     18087 TIP3     238      TIP3     H1       HT       0.417000       1.00800           0
     18088 TIP3     238      TIP3     H2       HT       0.417000       1.00800           0
     18089 TIP3     239      TIP3     OH2      OT      -0.834000       15.9994           0
     18090 TIP3     239      TIP3     H1       HT       0.417000       1.00800           0
     18091 TIP3     239      TIP3     H2       HT       0.417000       1.00800           0
     18092 TIP3     240      TIP3     OH2      OT      -0.834000       15.9994           0
     18093 TIP3     240      TIP3     H1       HT       0.417000       1.00800           0
     18094 TIP3     240      TIP3     H2       HT       0.417000       1.00800           0
     18095 TIP3     241      TIP3     OH2      OT      -0.834000       15.9994           0
     18096 TIP3     241      TIP3     H1       HT       0.417000       1.00800           0
     18097 TIP3     241      TIP3     H2       HT       0.417000       1.00800           0
     18098 TIP3     242      TIP3     OH2      OT      -0.834000       15.9994           0
     18099 TIP3     242      TIP3     H1       HT       0.417000       1.00800           0
     18100 TIP3     242      TIP3     H2       HT       0.417000       1.00800           0
     18101 TIP3     243      TIP3     OH2      OT      -0.834000       15.9994           0
     18102 TIP3     243      TIP3     H1       HT       0.417000       1.00800           0
     18103 TIP3     243      TIP3     H2       HT       0.417000       1.00800           0
     18104 TIP3     244      TIP3     OH2      OT      -0.834000       15.9994           0
     18105 TIP3     244      TIP3     H1       HT       0.417000       1.00800           0
     18106 TIP3     244      TIP3     H2       HT       0.417000       1.00800           0
     18107 TIP3     245      TIP3     OH2      OT      -0.834000       15.9994           0
     18108 TIP3     245      TIP3     H1       HT       0.417000       1.00800           0
     18109 TIP3     245      TIP3     H2       HT       0.417000       1.00800           0
     18110 TIP3     246      TIP3     OH2      OT      -0.834000       15.9994           0
     18111 TIP3     246      TIP3     H1       HT       0.417000       1.00800           0
     18112 TIP3     246      TIP3     H2       HT       0.417000       1.00800           0
     18113 TIP3     247      TIP3     OH2      OT      -0.834000       15.9994           0
     18114 TIP3     247      TIP3     H1       HT       0.417000       1.00800           0
     18115 TIP3     247      TIP3     H2       HT       0.417000       1.00800           0
     18116 TIP3     248      TIP3     OH2      OT      -0.834000       15.9994           0
     18117 TIP3     248      TIP3     H1       HT       0.417000       1.00800           0
     18118 TIP3     248      TIP3     H2       HT       0.417000       1.00800           0
     18119 TIP3     249      TIP3     OH2      OT      -0.834000       15.9994           0
     18120 TIP3     249      TIP3     H1       HT       0.417000       1.00800           0
     18121 TIP3     249      TIP3     H2       HT       0.417000       1.00800           0
     18122 TIP3     250      TIP3     OH2      OT      -0.834000       15.9994           0
     18123 TIP3     250      TIP3     H1       HT       0.417000       1.00800           0
     18124 TIP3     250      TIP3     H2       HT       0.417000       1.00800           0
     18125 TIP3     251      TIP3     OH2      OT      -0.834000       15.9994           0
     18126 TIP3     251      TIP3     H1       HT       0.417000       1.00800           0
     18127 TIP3     251      TIP3     H2       HT       0.417000       1.00800           0
     18128 TIP3     252      TIP3     OH2      OT      -0.834000       15.9994           0
     18129 TIP3     252      TIP3     H1       HT       0.417000       1.00800           0
     18130 TIP3     252      TIP3     H2       HT       0.417000       1.00800           0
     18131 TIP3     253      TIP3     OH2      OT      -0.834000       15.9994           0
     18132 TIP3     253      TIP3     H1       HT       0.417000       1.00800           0
     18133 TIP3     253      TIP3     H2       HT       0.417000       1.00800           0
     18134 TIP3     254      TIP3     OH2      OT      -0.834000       15.9994           0
     18135 TIP3     254      TIP3     H1       HT       0.417000       1.00800           0
     18136 TIP3     254      TIP3     H2       HT       0.417000       1.00800           0
     18137 TIP3     255      TIP3     OH2      OT      -0.834000       15.9994           0
     18138 TIP3     255      TIP3     H1       HT       0.417000       1.00800           0
     18139 TIP3     255      TIP3     H2       HT       0.417000       1.00800           0
     18140 TIP3     256      TIP3     OH2      OT      -0.834000       15.9994           0
     18141 TIP3     256      TIP3     H1       HT       0.417000       1.00800           0
     18142 TIP3     256      TIP3     H2       HT       0.417000       1.00800           0
     18143 TIP3     257      TIP3     OH2      OT      -0.834000       15.9994           0
     18144 TIP3     257      TIP3     H1       HT       0.417000       1.00800           0
     18145 TIP3     257      TIP3     H2       HT       0.417000       1.00800           0
     18146 TIP3     258      TIP3     OH2      OT      -0.834000       15.9994           0
     18147 TIP3     258      TIP3     H1       HT       0.417000       1.00800           0
     18148 TIP3     258      TIP3     H2       HT       0.417000       1.00800           0
     18149 TIP3     259      TIP3     OH2      OT      -0.834000       15.9994           0
     18150 TIP3     259      TIP3     H1       HT       0.417000       1.00800           0
     18151 TIP3     259      TIP3     H2       HT       0.417000       1.00800           0
     18152 TIP3     260      TIP3     OH2      OT      -0.834000       15.9994           0
     18153 TIP3     260      TIP3     H1       HT       0.417000       1.00800           0
     18154 TIP3     260      TIP3     H2       HT       0.417000       1.00800           0
     18155 TIP3     261      TIP3     OH2      OT      -0.834000       15.9994           0
     18156 TIP3     261      TIP3     H1       HT       0.417000       1.00800           0
     18157 TIP3     261      TIP3     H2       HT       0.417000       1.00800           0
     18158 TIP3     262      TIP3     OH2      OT      -0.834000       15.9994           0
     18159 TIP3     262      TIP3     H1       HT       0.417000       1.00800           0
     18160 TIP3     262      TIP3     H2       HT       0.417000       1.00800           0
     18161 TIP3     263      TIP3     OH2      OT      -0.834000       15.9994           0
     18162 TIP3     263      TIP3     H1       HT       0.417000       1.00800           0
     18163 TIP3     263      TIP3     H2       HT       0.417000       1.00800           0
     18164 TIP3     264      TIP3     OH2      OT      -0.834000       15.9994           0
     18165 TIP3     264      TIP3     H1       HT       0.417000       1.00800           0
     18166 TIP3     264      TIP3     H2       HT       0.417000       1.00800           0
     18167 TIP3     265      TIP3     OH2      OT      -0.834000       15.9994           0
     18168 TIP3     265      TIP3     H1       HT       0.417000       1.00800           0
     18169 TIP3     265      TIP3     H2       HT       0.417000       1.00800           0
     18170 TIP3     266      TIP3     OH2      OT      -0.834000       15.9994           0
     18171 TIP3     266      TIP3     H1       HT       0.417000       1.00800           0
     18172 TIP3     266      TIP3     H2       HT       0.417000       1.00800           0
     18173 TIP3     267      TIP3     OH2      OT      -0.834000       15.9994           0
     18174 TIP3     267      TIP3     H1       HT       0.417000       1.00800           0
     18175 TIP3     267      TIP3     H2       HT       0.417000       1.00800           0
     18176 TIP3     268      TIP3     OH2      OT      -0.834000       15.9994           0
     18177 TIP3     268      TIP3     H1       HT       0.417000       1.00800           0
     18178 TIP3     268      TIP3     H2       HT       0.417000       1.00800           0
     18179 TIP3     269      TIP3     OH2      OT      -0.834000       15.9994           0
     18180 TIP3     269      TIP3     H1       HT       0.417000       1.00800           0
     18181 TIP3     269      TIP3     H2       HT       0.417000       1.00800           0
     18182 TIP3     270      TIP3     OH2      OT      -0.834000       15.9994           0
     18183 TIP3     270      TIP3     H1       HT       0.417000       1.00800           0
     18184 TIP3     270      TIP3     H2       HT       0.417000       1.00800           0
     18185 TIP3     271      TIP3     OH2      OT      -0.834000       15.9994           0
     18186 TIP3     271      TIP3     H1       HT       0.417000       1.00800           0
     18187 TIP3     271      TIP3     H2       HT       0.417000       1.00800           0
     18188 TIP3     272      TIP3     OH2      OT      -0.834000       15.9994           0
     18189 TIP3     272      TIP3     H1       HT       0.417000       1.00800           0
     18190 TIP3     272      TIP3     H2       HT       0.417000       1.00800           0
     18191 TIP3     273      TIP3     OH2      OT      -0.834000       15.9994           0
     18192 TIP3     273      TIP3     H1       HT       0.417000       1.00800           0
     18193 TIP3     273      TIP3     H2       HT       0.417000       1.00800           0
     18194 TIP3     274      TIP3     OH2      OT      -0.834000       15.9994           0
     18195 TIP3     274      TIP3     H1       HT       0.417000       1.00800           0
     18196 TIP3     274      TIP3     H2       HT       0.417000       1.00800           0
     18197 TIP3     275      TIP3     OH2      OT      -0.834000       15.9994           0
     18198 TIP3     275      TIP3     H1       HT       0.417000       1.00800           0
     18199 TIP3     275      TIP3     H2       HT       0.417000       1.00800           0
     18200 TIP3     276      TIP3     OH2      OT      -0.834000       15.9994           0
     18201 TIP3     276      TIP3     H1       HT       0.417000       1.00800           0
     18202 TIP3     276      TIP3     H2       HT       0.417000       1.00800           0
     18203 TIP3     277      TIP3     OH2      OT      -0.834000       15.9994           0
     18204 TIP3     277      TIP3     H1       HT       0.417000       1.00800           0
     18205 TIP3     277      TIP3     H2       HT       0.417000       1.00800           0
     18206 TIP3     278      TIP3     OH2      OT      -0.834000       15.9994           0
     18207 TIP3     278      TIP3     H1       HT       0.417000       1.00800           0
     18208 TIP3     278      TIP3     H2       HT       0.417000       1.00800           0
     18209 TIP3     279      TIP3     OH2      OT      -0.834000       15.9994           0
     18210 TIP3     279      TIP3     H1       HT       0.417000       1.00800           0
     18211 TIP3     279      TIP3     H2       HT       0.417000       1.00800           0
     18212 TIP3     280      TIP3     OH2      OT      -0.834000       15.9994           0
     18213 TIP3     280      TIP3     H1       HT       0.417000       1.00800           0
     18214 TIP3     280      TIP3     H2       HT       0.417000       1.00800           0
     18215 TIP3     281      TIP3     OH2      OT      -0.834000       15.9994           0
     18216 TIP3     281      TIP3     H1       HT       0.417000       1.00800           0
     18217 TIP3     281      TIP3     H2       HT       0.417000       1.00800           0
     18218 TIP3     282      TIP3     OH2      OT      -0.834000       15.9994           0
     18219 TIP3     282      TIP3     H1       HT       0.417000       1.00800           0
     18220 TIP3     282      TIP3     H2       HT       0.417000       1.00800           0
     18221 TIP3     283      TIP3     OH2      OT      -0.834000       15.9994           0
     18222 TIP3     283      TIP3     H1       HT       0.417000       1.00800           0
     18223 TIP3     283      TIP3     H2       HT       0.417000       1.00800           0
     18224 TIP3     284      TIP3     OH2      OT      -0.834000       15.9994           0
     18225 TIP3     284      TIP3     H1       HT       0.417000       1.00800           0
     18226 TIP3     284      TIP3     H2       HT       0.417000       1.00800           0
     18227 TIP3     285      TIP3     OH2      OT      -0.834000       15.9994           0
     18228 TIP3     285      TIP3     H1       HT       0.417000       1.00800           0
     18229 TIP3     285      TIP3     H2       HT       0.417000       1.00800           0
     18230 TIP3     286      TIP3     OH2      OT      -0.834000       15.9994           0
     18231 TIP3     286      TIP3     H1       HT       0.417000       1.00800           0
     18232 TIP3     286      TIP3     H2       HT       0.417000       1.00800           0
     18233 TIP3     287      TIP3     OH2      OT      -0.834000       15.9994           0
     18234 TIP3     287      TIP3     H1       HT       0.417000       1.00800           0
     18235 TIP3     287      TIP3     H2       HT       0.417000       1.00800           0
     18236 TIP3     288      TIP3     OH2      OT      -0.834000       15.9994           0
     18237 TIP3     288      TIP3     H1       HT       0.417000       1.00800           0
     18238 TIP3     288      TIP3     H2       HT       0.417000       1.00800           0
     18239 TIP3     289      TIP3     OH2      OT      -0.834000       15.9994           0
     18240 TIP3     289      TIP3     H1       HT       0.417000       1.00800           0
     18241 TIP3     289      TIP3     H2       HT       0.417000       1.00800           0
     18242 TIP3     290      TIP3     OH2      OT      -0.834000       15.9994           0
     18243 TIP3     290      TIP3     H1       HT       0.417000       1.00800           0
     18244 TIP3     290      TIP3     H2       HT       0.417000       1.00800           0
     18245 TIP3     291      TIP3     OH2      OT      -0.834000       15.9994           0
     18246 TIP3     291      TIP3     H1       HT       0.417000       1.00800           0
     18247 TIP3     291      TIP3     H2       HT       0.417000       1.00800           0
     18248 TIP3     292      TIP3     OH2      OT      -0.834000       15.9994           0
     18249 TIP3     292      TIP3     H1       HT       0.417000       1.00800           0
     18250 TIP3     292      TIP3     H2       HT       0.417000       1.00800           0
     18251 TIP3     293      TIP3     OH2      OT      -0.834000       15.9994           0
     18252 TIP3     293      TIP3     H1       HT       0.417000       1.00800           0
     18253 TIP3     293      TIP3     H2       HT       0.417000       1.00800           0
     18254 TIP3     294      TIP3     OH2      OT      -0.834000       15.9994           0
     18255 TIP3     294      TIP3     H1       HT       0.417000       1.00800           0
     18256 TIP3     294      TIP3     H2       HT       0.417000       1.00800           0
     18257 TIP3     295      TIP3     OH2      OT      -0.834000       15.9994           0
     18258 TIP3     295      TIP3     H1       HT       0.417000       1.00800           0
     18259 TIP3     295      TIP3     H2       HT       0.417000       1.00800           0
     18260 TIP3     296      TIP3     OH2      OT      -0.834000       15.9994           0
     18261 TIP3     296      TIP3     H1       HT       0.417000       1.00800           0
     18262 TIP3     296      TIP3     H2       HT       0.417000       1.00800           0
     18263 TIP3     297      TIP3     OH2      OT      -0.834000       15.9994           0
     18264 TIP3     297      TIP3     H1       HT       0.417000       1.00800           0
     18265 TIP3     297      TIP3     H2       HT       0.417000       1.00800           0
     18266 TIP3     298      TIP3     OH2      OT      -0.834000       15.9994           0
     18267 TIP3     298      TIP3     H1       HT       0.417000       1.00800           0
     18268 TIP3     298      TIP3     H2       HT       0.417000       1.00800           0
     18269 TIP3     299      TIP3     OH2      OT      -0.834000       15.9994           0
     18270 TIP3     299      TIP3     H1       HT       0.417000       1.00800           0
     18271 TIP3     299      TIP3     H2       HT       0.417000       1.00800           0
     18272 TIP3     300      TIP3     OH2      OT      -0.834000       15.9994           0
     18273 TIP3     300      TIP3     H1       HT       0.417000       1.00800           0
     18274 TIP3     300      TIP3     H2       HT       0.417000       1.00800           0
     18275 TIP3     301      TIP3     OH2      OT      -0.834000       15.9994           0
     18276 TIP3     301      TIP3     H1       HT       0.417000       1.00800           0
     18277 TIP3     301      TIP3     H2       HT       0.417000       1.00800           0
     18278 TIP3     302      TIP3     OH2      OT      -0.834000       15.9994           0
     18279 TIP3     302      TIP3     H1       HT       0.417000       1.00800           0
     18280 TIP3     302      TIP3     H2       HT       0.417000       1.00800           0
     18281 TIP3     303      TIP3     OH2      OT      -0.834000       15.9994           0
     18282 TIP3     303      TIP3     H1       HT       0.417000       1.00800           0
     18283 TIP3     303      TIP3     H2       HT       0.417000       1.00800           0
     18284 TIP3     304      TIP3     OH2      OT      -0.834000       15.9994           0
     18285 TIP3     304      TIP3     H1       HT       0.417000       1.00800           0
     18286 TIP3     304      TIP3     H2       HT       0.417000       1.00800           0
     18287 TIP3     305      TIP3     OH2      OT      -0.834000       15.9994           0
     18288 TIP3     305      TIP3     H1       HT       0.417000       1.00800           0
     18289 TIP3     305      TIP3     H2       HT       0.417000       1.00800           0
     18290 TIP3     306      TIP3     OH2      OT      -0.834000       15.9994           0
     18291 TIP3     306      TIP3     H1       HT       0.417000       1.00800           0
     18292 TIP3     306      TIP3     H2       HT       0.417000       1.00800           0
     18293 TIP3     307      TIP3     OH2      OT      -0.834000       15.9994           0
     18294 TIP3     307      TIP3     H1       HT       0.417000       1.00800           0
     18295 TIP3     307      TIP3     H2       HT       0.417000       1.00800           0
     18296 TIP3     308      TIP3     OH2      OT      -0.834000       15.9994           0
     18297 TIP3     308      TIP3     H1       HT       0.417000       1.00800           0
     18298 TIP3     308      TIP3     H2       HT       0.417000       1.00800           0
     18299 TIP3     309      TIP3     OH2      OT      -0.834000       15.9994           0
     18300 TIP3     309      TIP3     H1       HT       0.417000       1.00800           0
     18301 TIP3     309      TIP3     H2       HT       0.417000       1.00800           0
     18302 TIP3     310      TIP3     OH2      OT      -0.834000       15.9994           0
     18303 TIP3     310      TIP3     H1       HT       0.417000       1.00800           0
     18304 TIP3     310      TIP3     H2       HT       0.417000       1.00800           0
     18305 TIP3     311      TIP3     OH2      OT      -0.834000       15.9994           0
     18306 TIP3     311      TIP3     H1       HT       0.417000       1.00800           0
     18307 TIP3     311      TIP3     H2       HT       0.417000       1.00800           0
     18308 TIP3     312      TIP3     OH2      OT      -0.834000       15.9994           0
     18309 TIP3     312      TIP3     H1       HT       0.417000       1.00800           0
     18310 TIP3     312      TIP3     H2       HT       0.417000       1.00800           0
     18311 TIP3     313      TIP3     OH2      OT      -0.834000       15.9994           0
     18312 TIP3     313      TIP3     H1       HT       0.417000       1.00800           0
     18313 TIP3     313      TIP3     H2       HT       0.417000       1.00800           0
     18314 TIP3     314      TIP3     OH2      OT      -0.834000       15.9994           0
     18315 TIP3     314      TIP3     H1       HT       0.417000       1.00800           0
     18316 TIP3     314      TIP3     H2       HT       0.417000       1.00800           0
     18317 TIP3     315      TIP3     OH2      OT      -0.834000       15.9994           0
     18318 TIP3     315      TIP3     H1       HT       0.417000       1.00800           0
     18319 TIP3     315      TIP3     H2       HT       0.417000       1.00800           0
     18320 TIP3     316      TIP3     OH2      OT      -0.834000       15.9994           0
     18321 TIP3     316      TIP3     H1       HT       0.417000       1.00800           0
     18322 TIP3     316      TIP3     H2       HT       0.417000       1.00800           0
     18323 TIP3     317      TIP3     OH2      OT      -0.834000       15.9994           0
     18324 TIP3     317      TIP3     H1       HT       0.417000       1.00800           0
     18325 TIP3     317      TIP3     H2       HT       0.417000       1.00800           0
     18326 TIP3     318      TIP3     OH2      OT      -0.834000       15.9994           0
     18327 TIP3     318      TIP3     H1       HT       0.417000       1.00800           0
     18328 TIP3     318      TIP3     H2       HT       0.417000       1.00800           0
     18329 TIP3     319      TIP3     OH2      OT      -0.834000       15.9994           0
     18330 TIP3     319      TIP3     H1       HT       0.417000       1.00800           0
     18331 TIP3     319      TIP3     H2       HT       0.417000       1.00800           0
     18332 TIP3     320      TIP3     OH2      OT      -0.834000       15.9994           0
     18333 TIP3     320      TIP3     H1       HT       0.417000       1.00800           0
     18334 TIP3     320      TIP3     H2       HT       0.417000       1.00800           0
     18335 TIP3     321      TIP3     OH2      OT      -0.834000       15.9994           0
     18336 TIP3     321      TIP3     H1       HT       0.417000       1.00800           0
     18337 TIP3     321      TIP3     H2       HT       0.417000       1.00800           0
     18338 TIP3     322      TIP3     OH2      OT      -0.834000       15.9994           0
     18339 TIP3     322      TIP3     H1       HT       0.417000       1.00800           0
     18340 TIP3     322      TIP3     H2       HT       0.417000       1.00800           0
     18341 TIP3     323      TIP3     OH2      OT      -0.834000       15.9994           0
     18342 TIP3     323      TIP3     H1       HT       0.417000       1.00800           0
     18343 TIP3     323      TIP3     H2       HT       0.417000       1.00800           0
     18344 TIP3     324      TIP3     OH2      OT      -0.834000       15.9994           0
     18345 TIP3     324      TIP3     H1       HT       0.417000       1.00800           0
     18346 TIP3     324      TIP3     H2       HT       0.417000       1.00800           0
     18347 TIP3     325      TIP3     OH2      OT      -0.834000       15.9994           0
     18348 TIP3     325      TIP3     H1       HT       0.417000       1.00800           0
     18349 TIP3     325      TIP3     H2       HT       0.417000       1.00800           0
     18350 TIP3     326      TIP3     OH2      OT      -0.834000       15.9994           0
     18351 TIP3     326      TIP3     H1       HT       0.417000       1.00800           0
     18352 TIP3     326      TIP3     H2       HT       0.417000       1.00800           0
     18353 TIP3     327      TIP3     OH2      OT      -0.834000       15.9994           0
     18354 TIP3     327      TIP3     H1       HT       0.417000       1.00800           0
     18355 TIP3     327      TIP3     H2       HT       0.417000       1.00800           0
     18356 TIP3     328      TIP3     OH2      OT      -0.834000       15.9994           0
     18357 TIP3     328      TIP3     H1       HT       0.417000       1.00800           0
     18358 TIP3     328      TIP3     H2       HT       0.417000       1.00800           0
     18359 TIP3     329      TIP3     OH2      OT      -0.834000       15.9994           0
     18360 TIP3     329      TIP3     H1       HT       0.417000       1.00800           0
     18361 TIP3     329      TIP3     H2       HT       0.417000       1.00800           0
     18362 TIP3     330      TIP3     OH2      OT      -0.834000       15.9994           0
     18363 TIP3     330      TIP3     H1       HT       0.417000       1.00800           0
     18364 TIP3     330      TIP3     H2       HT       0.417000       1.00800           0
     18365 TIP3     331      TIP3     OH2      OT      -0.834000       15.9994           0
     18366 TIP3     331      TIP3     H1       HT       0.417000       1.00800           0
     18367 TIP3     331      TIP3     H2       HT       0.417000       1.00800           0
     18368 TIP3     332      TIP3     OH2      OT      -0.834000       15.9994           0
     18369 TIP3     332      TIP3     H1       HT       0.417000       1.00800           0
     18370 TIP3     332      TIP3     H2       HT       0.417000       1.00800           0
     18371 TIP3     333      TIP3     OH2      OT      -0.834000       15.9994           0
     18372 TIP3     333      TIP3     H1       HT       0.417000       1.00800           0
     18373 TIP3     333      TIP3     H2       HT       0.417000       1.00800           0
     18374 TIP3     334      TIP3     OH2      OT      -0.834000       15.9994           0
     18375 TIP3     334      TIP3     H1       HT       0.417000       1.00800           0
     18376 TIP3     334      TIP3     H2       HT       0.417000       1.00800           0
     18377 TIP3     335      TIP3     OH2      OT      -0.834000       15.9994           0
     18378 TIP3     335      TIP3     H1       HT       0.417000       1.00800           0
     18379 TIP3     335      TIP3     H2       HT       0.417000       1.00800           0
     18380 TIP3     336      TIP3     OH2      OT      -0.834000       15.9994           0
     18381 TIP3     336      TIP3     H1       HT       0.417000       1.00800           0
     18382 TIP3     336      TIP3     H2       HT       0.417000       1.00800           0
     18383 TIP3     337      TIP3     OH2      OT      -0.834000       15.9994           0
     18384 TIP3     337      TIP3     H1       HT       0.417000       1.00800           0
     18385 TIP3     337      TIP3     H2       HT       0.417000       1.00800           0
     18386 TIP3     338      TIP3     OH2      OT      -0.834000       15.9994           0
     18387 TIP3     338      TIP3     H1       HT       0.417000       1.00800           0
     18388 TIP3     338      TIP3     H2       HT       0.417000       1.00800           0
     18389 TIP3     339      TIP3     OH2      OT      -0.834000       15.9994           0
     18390 TIP3     339      TIP3     H1       HT       0.417000       1.00800           0
     18391 TIP3     339      TIP3     H2       HT       0.417000       1.00800           0
     18392 TIP3     340      TIP3     OH2      OT      -0.834000       15.9994           0
     18393 TIP3     340      TIP3     H1       HT       0.417000       1.00800           0
     18394 TIP3     340      TIP3     H2       HT       0.417000       1.00800           0
     18395 TIP3     341      TIP3     OH2      OT      -0.834000       15.9994           0
     18396 TIP3     341      TIP3     H1       HT       0.417000       1.00800           0
     18397 TIP3     341      TIP3     H2       HT       0.417000       1.00800           0
     18398 TIP3     342      TIP3     OH2      OT      -0.834000       15.9994           0
     18399 TIP3     342      TIP3     H1       HT       0.417000       1.00800           0
     18400 TIP3     342      TIP3     H2       HT       0.417000       1.00800           0
     18401 TIP3     343      TIP3     OH2      OT      -0.834000       15.9994           0
     18402 TIP3     343      TIP3     H1       HT       0.417000       1.00800           0
     18403 TIP3     343      TIP3     H2       HT       0.417000       1.00800           0
     18404 TIP3     344      TIP3     OH2      OT      -0.834000       15.9994           0
     18405 TIP3     344      TIP3     H1       HT       0.417000       1.00800           0
     18406 TIP3     344      TIP3     H2       HT       0.417000       1.00800           0
     18407 TIP3     345      TIP3     OH2      OT      -0.834000       15.9994           0
     18408 TIP3     345      TIP3     H1       HT       0.417000       1.00800           0
     18409 TIP3     345      TIP3     H2       HT       0.417000       1.00800           0
     18410 TIP3     346      TIP3     OH2      OT      -0.834000       15.9994           0
     18411 TIP3     346      TIP3     H1       HT       0.417000       1.00800           0
     18412 TIP3     346      TIP3     H2       HT       0.417000       1.00800           0
     18413 TIP3     347      TIP3     OH2      OT      -0.834000       15.9994           0
     18414 TIP3     347      TIP3     H1       HT       0.417000       1.00800           0
     18415 TIP3     347      TIP3     H2       HT       0.417000       1.00800           0
     18416 TIP3     348      TIP3     OH2      OT      -0.834000       15.9994           0
     18417 TIP3     348      TIP3     H1       HT       0.417000       1.00800           0
     18418 TIP3     348      TIP3     H2       HT       0.417000       1.00800           0
     18419 TIP3     349      TIP3     OH2      OT      -0.834000       15.9994           0
     18420 TIP3     349      TIP3     H1       HT       0.417000       1.00800           0
     18421 TIP3     349      TIP3     H2       HT       0.417000       1.00800           0
     18422 TIP3     350      TIP3     OH2      OT      -0.834000       15.9994           0
     18423 TIP3     350      TIP3     H1       HT       0.417000       1.00800           0
     18424 TIP3     350      TIP3     H2       HT       0.417000       1.00800           0
     18425 TIP3     351      TIP3     OH2      OT      -0.834000       15.9994           0
     18426 TIP3     351      TIP3     H1       HT       0.417000       1.00800           0
     18427 TIP3     351      TIP3     H2       HT       0.417000       1.00800           0
     18428 TIP3     352      TIP3     OH2      OT      -0.834000       15.9994           0
     18429 TIP3     352      TIP3     H1       HT       0.417000       1.00800           0
     18430 TIP3     352      TIP3     H2       HT       0.417000       1.00800           0
     18431 TIP3     353      TIP3     OH2      OT      -0.834000       15.9994           0
     18432 TIP3     353      TIP3     H1       HT       0.417000       1.00800           0
     18433 TIP3     353      TIP3     H2       HT       0.417000       1.00800           0
     18434 TIP3     354      TIP3     OH2      OT      -0.834000       15.9994           0
     18435 TIP3     354      TIP3     H1       HT       0.417000       1.00800           0
     18436 TIP3     354      TIP3     H2       HT       0.417000       1.00800           0
     18437 TIP3     355      TIP3     OH2      OT      -0.834000       15.9994           0
     18438 TIP3     355      TIP3     H1       HT       0.417000       1.00800           0
     18439 TIP3     355      TIP3     H2       HT       0.417000       1.00800           0
     18440 TIP3     356      TIP3     OH2      OT      -0.834000       15.9994           0
     18441 TIP3     356      TIP3     H1       HT       0.417000       1.00800           0
     18442 TIP3     356      TIP3     H2       HT       0.417000       1.00800           0
     18443 TIP3     357      TIP3     OH2      OT      -0.834000       15.9994           0
     18444 TIP3     357      TIP3     H1       HT       0.417000       1.00800           0
     18445 TIP3     357      TIP3     H2       HT       0.417000       1.00800           0
     18446 TIP3     358      TIP3     OH2      OT      -0.834000       15.9994           0
     18447 TIP3     358      TIP3     H1       HT       0.417000       1.00800           0
     18448 TIP3     358      TIP3     H2       HT       0.417000       1.00800           0
     18449 TIP3     359      TIP3     OH2      OT      -0.834000       15.9994           0
     18450 TIP3     359      TIP3     H1       HT       0.417000       1.00800           0
     18451 TIP3     359      TIP3     H2       HT       0.417000       1.00800           0
     18452 TIP3     360      TIP3     OH2      OT      -0.834000       15.9994           0
     18453 TIP3     360      TIP3     H1       HT       0.417000       1.00800           0
     18454 TIP3     360      TIP3     H2       HT       0.417000       1.00800           0
     18455 TIP3     361      TIP3     OH2      OT      -0.834000       15.9994           0
     18456 TIP3     361      TIP3     H1       HT       0.417000       1.00800           0
     18457 TIP3     361      TIP3     H2       HT       0.417000       1.00800           0
     18458 TIP3     362      TIP3     OH2      OT      -0.834000       15.9994           0
     18459 TIP3     362      TIP3     H1       HT       0.417000       1.00800           0
     18460 TIP3     362      TIP3     H2       HT       0.417000       1.00800           0
     18461 TIP3     363      TIP3     OH2      OT      -0.834000       15.9994           0
     18462 TIP3     363      TIP3     H1       HT       0.417000       1.00800           0
     18463 TIP3     363      TIP3     H2       HT       0.417000       1.00800           0
     18464 TIP3     364      TIP3     OH2      OT      -0.834000       15.9994           0
     18465 TIP3     364      TIP3     H1       HT       0.417000       1.00800           0
     18466 TIP3     364      TIP3     H2       HT       0.417000       1.00800           0
     18467 TIP3     365      TIP3     OH2      OT      -0.834000       15.9994           0
     18468 TIP3     365      TIP3     H1       HT       0.417000       1.00800           0
     18469 TIP3     365      TIP3     H2       HT       0.417000       1.00800           0
     18470 TIP3     366      TIP3     OH2      OT      -0.834000       15.9994           0
     18471 TIP3     366      TIP3     H1       HT       0.417000       1.00800           0
     18472 TIP3     366      TIP3     H2       HT       0.417000       1.00800           0
     18473 TIP3     367      TIP3     OH2      OT      -0.834000       15.9994           0
     18474 TIP3     367      TIP3     H1       HT       0.417000       1.00800           0
     18475 TIP3     367      TIP3     H2       HT       0.417000       1.00800           0
     18476 TIP3     368      TIP3     OH2      OT      -0.834000       15.9994           0
     18477 TIP3     368      TIP3     H1       HT       0.417000       1.00800           0
     18478 TIP3     368      TIP3     H2       HT       0.417000       1.00800           0
     18479 TIP3     369      TIP3     OH2      OT      -0.834000       15.9994           0
     18480 TIP3     369      TIP3     H1       HT       0.417000       1.00800           0
     18481 TIP3     369      TIP3     H2       HT       0.417000       1.00800           0
     18482 TIP3     370      TIP3     OH2      OT      -0.834000       15.9994           0
     18483 TIP3     370      TIP3     H1       HT       0.417000       1.00800           0
     18484 TIP3     370      TIP3     H2       HT       0.417000       1.00800           0
     18485 TIP3     371      TIP3     OH2      OT      -0.834000       15.9994           0
     18486 TIP3     371      TIP3     H1       HT       0.417000       1.00800           0
     18487 TIP3     371      TIP3     H2       HT       0.417000       1.00800           0
     18488 TIP3     372      TIP3     OH2      OT      -0.834000       15.9994           0
     18489 TIP3     372      TIP3     H1       HT       0.417000       1.00800           0
     18490 TIP3     372      TIP3     H2       HT       0.417000       1.00800           0
     18491 TIP3     373      TIP3     OH2      OT      -0.834000       15.9994           0
     18492 TIP3     373      TIP3     H1       HT       0.417000       1.00800           0
     18493 TIP3     373      TIP3     H2       HT       0.417000       1.00800           0
     18494 TIP3     374      TIP3     OH2      OT      -0.834000       15.9994           0
     18495 TIP3     374      TIP3     H1       HT       0.417000       1.00800           0
     18496 TIP3     374      TIP3     H2       HT       0.417000       1.00800           0
     18497 TIP3     375      TIP3     OH2      OT      -0.834000       15.9994           0
     18498 TIP3     375      TIP3     H1       HT       0.417000       1.00800           0
     18499 TIP3     375      TIP3     H2       HT       0.417000       1.00800           0
     18500 TIP3     376      TIP3     OH2      OT      -0.834000       15.9994           0
     18501 TIP3     376      TIP3     H1       HT       0.417000       1.00800           0
     18502 TIP3     376      TIP3     H2       HT       0.417000       1.00800           0
     18503 TIP3     377      TIP3     OH2      OT      -0.834000       15.9994           0
     18504 TIP3     377      TIP3     H1       HT       0.417000       1.00800           0
     18505 TIP3     377      TIP3     H2       HT       0.417000       1.00800           0
     18506 TIP3     378      TIP3     OH2      OT      -0.834000       15.9994           0
     18507 TIP3     378      TIP3     H1       HT       0.417000       1.00800           0
     18508 TIP3     378      TIP3     H2       HT       0.417000       1.00800           0
     18509 TIP3     379      TIP3     OH2      OT      -0.834000       15.9994           0
     18510 TIP3     379      TIP3     H1       HT       0.417000       1.00800           0
     18511 TIP3     379      TIP3     H2       HT       0.417000       1.00800           0
     18512 TIP3     380      TIP3     OH2      OT      -0.834000       15.9994           0
     18513 TIP3     380      TIP3     H1       HT       0.417000       1.00800           0
     18514 TIP3     380      TIP3     H2       HT       0.417000       1.00800           0
     18515 TIP3     381      TIP3     OH2      OT      -0.834000       15.9994           0
     18516 TIP3     381      TIP3     H1       HT       0.417000       1.00800           0
     18517 TIP3     381      TIP3     H2       HT       0.417000       1.00800           0
     18518 TIP3     382      TIP3     OH2      OT      -0.834000       15.9994           0
     18519 TIP3     382      TIP3     H1       HT       0.417000       1.00800           0
     18520 TIP3     382      TIP3     H2       HT       0.417000       1.00800           0
     18521 TIP3     383      TIP3     OH2      OT      -0.834000       15.9994           0
     18522 TIP3     383      TIP3     H1       HT       0.417000       1.00800           0
     18523 TIP3     383      TIP3     H2       HT       0.417000       1.00800           0
     18524 TIP3     384      TIP3     OH2      OT      -0.834000       15.9994           0
     18525 TIP3     384      TIP3     H1       HT       0.417000       1.00800           0
     18526 TIP3     384      TIP3     H2       HT       0.417000       1.00800           0
     18527 TIP3     385      TIP3     OH2      OT      -0.834000       15.9994           0
     18528 TIP3     385      TIP3     H1       HT       0.417000       1.00800           0
     18529 TIP3     385      TIP3     H2       HT       0.417000       1.00800           0
     18530 TIP3     386      TIP3     OH2      OT      -0.834000       15.9994           0
     18531 TIP3     386      TIP3     H1       HT       0.417000       1.00800           0
     18532 TIP3     386      TIP3     H2       HT       0.417000       1.00800           0
     18533 TIP3     387      TIP3     OH2      OT      -0.834000       15.9994           0
     18534 TIP3     387      TIP3     H1       HT       0.417000       1.00800           0
     18535 TIP3     387      TIP3     H2       HT       0.417000       1.00800           0
     18536 TIP3     388      TIP3     OH2      OT      -0.834000       15.9994           0
     18537 TIP3     388      TIP3     H1       HT       0.417000       1.00800           0
     18538 TIP3     388      TIP3     H2       HT       0.417000       1.00800           0
     18539 TIP3     389      TIP3     OH2      OT      -0.834000       15.9994           0
     18540 TIP3     389      TIP3     H1       HT       0.417000       1.00800           0
     18541 TIP3     389      TIP3     H2       HT       0.417000       1.00800           0
     18542 TIP3     390      TIP3     OH2      OT      -0.834000       15.9994           0
     18543 TIP3     390      TIP3     H1       HT       0.417000       1.00800           0
     18544 TIP3     390      TIP3     H2       HT       0.417000       1.00800           0
     18545 TIP3     391      TIP3     OH2      OT      -0.834000       15.9994           0
     18546 TIP3     391      TIP3     H1       HT       0.417000       1.00800           0
     18547 TIP3     391      TIP3     H2       HT       0.417000       1.00800           0
     18548 TIP3     392      TIP3     OH2      OT      -0.834000       15.9994           0
     18549 TIP3     392      TIP3     H1       HT       0.417000       1.00800           0
     18550 TIP3     392      TIP3     H2       HT       0.417000       1.00800           0
     18551 TIP3     393      TIP3     OH2      OT      -0.834000       15.9994           0
     18552 TIP3     393      TIP3     H1       HT       0.417000       1.00800           0
     18553 TIP3     393      TIP3     H2       HT       0.417000       1.00800           0
     18554 TIP3     394      TIP3     OH2      OT      -0.834000       15.9994           0
     18555 TIP3     394      TIP3     H1       HT       0.417000       1.00800           0
     18556 TIP3     394      TIP3     H2       HT       0.417000       1.00800           0
     18557 TIP3     395      TIP3     OH2      OT      -0.834000       15.9994           0
     18558 TIP3     395      TIP3     H1       HT       0.417000       1.00800           0
     18559 TIP3     395      TIP3     H2       HT       0.417000       1.00800           0
     18560 TIP3     396      TIP3     OH2      OT      -0.834000       15.9994           0
     18561 TIP3     396      TIP3     H1       HT       0.417000       1.00800           0
     18562 TIP3     396      TIP3     H2       HT       0.417000       1.00800           0
     18563 TIP3     397      TIP3     OH2      OT      -0.834000       15.9994           0
     18564 TIP3     397      TIP3     H1       HT       0.417000       1.00800           0
     18565 TIP3     397      TIP3     H2       HT       0.417000       1.00800           0
     18566 TIP3     398      TIP3     OH2      OT      -0.834000       15.9994           0
     18567 TIP3     398      TIP3     H1       HT       0.417000       1.00800           0
     18568 TIP3     398      TIP3     H2       HT       0.417000       1.00800           0
     18569 TIP3     399      TIP3     OH2      OT      -0.834000       15.9994           0
     18570 TIP3     399      TIP3     H1       HT       0.417000       1.00800           0
     18571 TIP3     399      TIP3     H2       HT       0.417000       1.00800           0
     18572 TIP3     400      TIP3     OH2      OT      -0.834000       15.9994           0
     18573 TIP3     400      TIP3     H1       HT       0.417000       1.00800           0
     18574 TIP3     400      TIP3     H2       HT       0.417000       1.00800           0
     18575 TIP3     401      TIP3     OH2      OT      -0.834000       15.9994           0
     18576 TIP3     401      TIP3     H1       HT       0.417000       1.00800           0
     18577 TIP3     401      TIP3     H2       HT       0.417000       1.00800           0
     18578 TIP3     402      TIP3     OH2      OT      -0.834000       15.9994           0
     18579 TIP3     402      TIP3     H1       HT       0.417000       1.00800           0
     18580 TIP3     402      TIP3     H2       HT       0.417000       1.00800           0
     18581 TIP3     403      TIP3     OH2      OT      -0.834000       15.9994           0
     18582 TIP3     403      TIP3     H1       HT       0.417000       1.00800           0
     18583 TIP3     403      TIP3     H2       HT       0.417000       1.00800           0
     18584 TIP3     404      TIP3     OH2      OT      -0.834000       15.9994           0
     18585 TIP3     404      TIP3     H1       HT       0.417000       1.00800           0
     18586 TIP3     404      TIP3     H2       HT       0.417000       1.00800           0
     18587 TIP3     405      TIP3     OH2      OT      -0.834000       15.9994           0
     18588 TIP3     405      TIP3     H1       HT       0.417000       1.00800           0
     18589 TIP3     405      TIP3     H2       HT       0.417000       1.00800           0
     18590 TIP3     406      TIP3     OH2      OT      -0.834000       15.9994           0
     18591 TIP3     406      TIP3     H1       HT       0.417000       1.00800           0
     18592 TIP3     406      TIP3     H2       HT       0.417000       1.00800           0
     18593 TIP3     407      TIP3     OH2      OT      -0.834000       15.9994           0
     18594 TIP3     407      TIP3     H1       HT       0.417000       1.00800           0
     18595 TIP3     407      TIP3     H2       HT       0.417000       1.00800           0
     18596 TIP3     408      TIP3     OH2      OT      -0.834000       15.9994           0
     18597 TIP3     408      TIP3     H1       HT       0.417000       1.00800           0
     18598 TIP3     408      TIP3     H2       HT       0.417000       1.00800           0
     18599 TIP3     409      TIP3     OH2      OT      -0.834000       15.9994           0
     18600 TIP3     409      TIP3     H1       HT       0.417000       1.00800           0
     18601 TIP3     409      TIP3     H2       HT       0.417000       1.00800           0
     18602 TIP3     410      TIP3     OH2      OT      -0.834000       15.9994           0
     18603 TIP3     410      TIP3     H1       HT       0.417000       1.00800           0
     18604 TIP3     410      TIP3     H2       HT       0.417000       1.00800           0
     18605 TIP3     411      TIP3     OH2      OT      -0.834000       15.9994           0
     18606 TIP3     411      TIP3     H1       HT       0.417000       1.00800           0
     18607 TIP3     411      TIP3     H2       HT       0.417000       1.00800           0
     18608 TIP3     412      TIP3     OH2      OT      -0.834000       15.9994           0
     18609 TIP3     412      TIP3     H1       HT       0.417000       1.00800           0
     18610 TIP3     412      TIP3     H2       HT       0.417000       1.00800           0
     18611 TIP3     413      TIP3     OH2      OT      -0.834000       15.9994           0
     18612 TIP3     413      TIP3     H1       HT       0.417000       1.00800           0
     18613 TIP3     413      TIP3     H2       HT       0.417000       1.00800           0
     18614 TIP3     414      TIP3     OH2      OT      -0.834000       15.9994           0
     18615 TIP3     414      TIP3     H1       HT       0.417000       1.00800           0
     18616 TIP3     414      TIP3     H2       HT       0.417000       1.00800           0
     18617 TIP3     415      TIP3     OH2      OT      -0.834000       15.9994           0
     18618 TIP3     415      TIP3     H1       HT       0.417000       1.00800           0
     18619 TIP3     415      TIP3     H2       HT       0.417000       1.00800           0
     18620 TIP3     416      TIP3     OH2      OT      -0.834000       15.9994           0
     18621 TIP3     416      TIP3     H1       HT       0.417000       1.00800           0
     18622 TIP3     416      TIP3     H2       HT       0.417000       1.00800           0
     18623 TIP3     417      TIP3     OH2      OT      -0.834000       15.9994           0
     18624 TIP3     417      TIP3     H1       HT       0.417000       1.00800           0
     18625 TIP3     417      TIP3     H2       HT       0.417000       1.00800           0
     18626 TIP3     418      TIP3     OH2      OT      -0.834000       15.9994           0
     18627 TIP3     418      TIP3     H1       HT       0.417000       1.00800           0
     18628 TIP3     418      TIP3     H2       HT       0.417000       1.00800           0
     18629 TIP3     419      TIP3     OH2      OT      -0.834000       15.9994           0
     18630 TIP3     419      TIP3     H1       HT       0.417000       1.00800           0
     18631 TIP3     419      TIP3     H2       HT       0.417000       1.00800           0
     18632 TIP3     420      TIP3     OH2      OT      -0.834000       15.9994           0
     18633 TIP3     420      TIP3     H1       HT       0.417000       1.00800           0
     18634 TIP3     420      TIP3     H2       HT       0.417000       1.00800           0
     18635 TIP3     421      TIP3     OH2      OT      -0.834000       15.9994           0
     18636 TIP3     421      TIP3     H1       HT       0.417000       1.00800           0
     18637 TIP3     421      TIP3     H2       HT       0.417000       1.00800           0
     18638 TIP3     422      TIP3     OH2      OT      -0.834000       15.9994           0
     18639 TIP3     422      TIP3     H1       HT       0.417000       1.00800           0
     18640 TIP3     422      TIP3     H2       HT       0.417000       1.00800           0
     18641 TIP3     423      TIP3     OH2      OT      -0.834000       15.9994           0
     18642 TIP3     423      TIP3     H1       HT       0.417000       1.00800           0
     18643 TIP3     423      TIP3     H2       HT       0.417000       1.00800           0
     18644 TIP3     424      TIP3     OH2      OT      -0.834000       15.9994           0
     18645 TIP3     424      TIP3     H1       HT       0.417000       1.00800           0
     18646 TIP3     424      TIP3     H2       HT       0.417000       1.00800           0
     18647 TIP3     425      TIP3     OH2      OT      -0.834000       15.9994           0
     18648 TIP3     425      TIP3     H1       HT       0.417000       1.00800           0
     18649 TIP3     425      TIP3     H2       HT       0.417000       1.00800           0
     18650 TIP3     426      TIP3     OH2      OT      -0.834000       15.9994           0
     18651 TIP3     426      TIP3     H1       HT       0.417000       1.00800           0
     18652 TIP3     426      TIP3     H2       HT       0.417000       1.00800           0
     18653 TIP3     427      TIP3     OH2      OT      -0.834000       15.9994           0
     18654 TIP3     427      TIP3     H1       HT       0.417000       1.00800           0
     18655 TIP3     427      TIP3     H2       HT       0.417000       1.00800           0
     18656 TIP3     428      TIP3     OH2      OT      -0.834000       15.9994           0
     18657 TIP3     428      TIP3     H1       HT       0.417000       1.00800           0
     18658 TIP3     428      TIP3     H2       HT       0.417000       1.00800           0
     18659 TIP3     429      TIP3     OH2      OT      -0.834000       15.9994           0
     18660 TIP3     429      TIP3     H1       HT       0.417000       1.00800           0
     18661 TIP3     429      TIP3     H2       HT       0.417000       1.00800           0
     18662 TIP3     430      TIP3     OH2      OT      -0.834000       15.9994           0
     18663 TIP3     430      TIP3     H1       HT       0.417000       1.00800           0
     18664 TIP3     430      TIP3     H2       HT       0.417000       1.00800           0
     18665 TIP3     431      TIP3     OH2      OT      -0.834000       15.9994           0
     18666 TIP3     431      TIP3     H1       HT       0.417000       1.00800           0
     18667 TIP3     431      TIP3     H2       HT       0.417000       1.00800           0
     18668 TIP3     432      TIP3     OH2      OT      -0.834000       15.9994           0
     18669 TIP3     432      TIP3     H1       HT       0.417000       1.00800           0
     18670 TIP3     432      TIP3     H2       HT       0.417000       1.00800           0
     18671 TIP3     433      TIP3     OH2      OT      -0.834000       15.9994           0
     18672 TIP3     433      TIP3     H1       HT       0.417000       1.00800           0
     18673 TIP3     433      TIP3     H2       HT       0.417000       1.00800           0
     18674 TIP3     434      TIP3     OH2      OT      -0.834000       15.9994           0
     18675 TIP3     434      TIP3     H1       HT       0.417000       1.00800           0
     18676 TIP3     434      TIP3     H2       HT       0.417000       1.00800           0
     18677 TIP3     435      TIP3     OH2      OT      -0.834000       15.9994           0
     18678 TIP3     435      TIP3     H1       HT       0.417000       1.00800           0
     18679 TIP3     435      TIP3     H2       HT       0.417000       1.00800           0
     18680 TIP3     436      TIP3     OH2      OT      -0.834000       15.9994           0
     18681 TIP3     436      TIP3     H1       HT       0.417000       1.00800           0
     18682 TIP3     436      TIP3     H2       HT       0.417000       1.00800           0
     18683 TIP3     437      TIP3     OH2      OT      -0.834000       15.9994           0
     18684 TIP3     437      TIP3     H1       HT       0.417000       1.00800           0
     18685 TIP3     437      TIP3     H2       HT       0.417000       1.00800           0
     18686 TIP3     438      TIP3     OH2      OT      -0.834000       15.9994           0
     18687 TIP3     438      TIP3     H1       HT       0.417000       1.00800           0
     18688 TIP3     438      TIP3     H2       HT       0.417000       1.00800           0
     18689 TIP3     439      TIP3     OH2      OT      -0.834000       15.9994           0
     18690 TIP3     439      TIP3     H1       HT       0.417000       1.00800           0
     18691 TIP3     439      TIP3     H2       HT       0.417000       1.00800           0
     18692 TIP3     440      TIP3     OH2      OT      -0.834000       15.9994           0
     18693 TIP3     440      TIP3     H1       HT       0.417000       1.00800           0
     18694 TIP3     440      TIP3     H2       HT       0.417000       1.00800           0
     18695 TIP3     441      TIP3     OH2      OT      -0.834000       15.9994           0
     18696 TIP3     441      TIP3     H1       HT       0.417000       1.00800           0
     18697 TIP3     441      TIP3     H2       HT       0.417000       1.00800           0
     18698 TIP3     442      TIP3     OH2      OT      -0.834000       15.9994           0
     18699 TIP3     442      TIP3     H1       HT       0.417000       1.00800           0
     18700 TIP3     442      TIP3     H2       HT       0.417000       1.00800           0
     18701 TIP3     443      TIP3     OH2      OT      -0.834000       15.9994           0
     18702 TIP3     443      TIP3     H1       HT       0.417000       1.00800           0
     18703 TIP3     443      TIP3     H2       HT       0.417000       1.00800           0
     18704 TIP3     444      TIP3     OH2      OT      -0.834000       15.9994           0
     18705 TIP3     444      TIP3     H1       HT       0.417000       1.00800           0
     18706 TIP3     444      TIP3     H2       HT       0.417000       1.00800           0
     18707 TIP3     445      TIP3     OH2      OT      -0.834000       15.9994           0
     18708 TIP3     445      TIP3     H1       HT       0.417000       1.00800           0
     18709 TIP3     445      TIP3     H2       HT       0.417000       1.00800           0
     18710 TIP3     446      TIP3     OH2      OT      -0.834000       15.9994           0
     18711 TIP3     446      TIP3     H1       HT       0.417000       1.00800           0
     18712 TIP3     446      TIP3     H2       HT       0.417000       1.00800           0
     18713 TIP3     447      TIP3     OH2      OT      -0.834000       15.9994           0
     18714 TIP3     447      TIP3     H1       HT       0.417000       1.00800           0
     18715 TIP3     447      TIP3     H2       HT       0.417000       1.00800           0
     18716 TIP3     448      TIP3     OH2      OT      -0.834000       15.9994           0
     18717 TIP3     448      TIP3     H1       HT       0.417000       1.00800           0
     18718 TIP3     448      TIP3     H2       HT       0.417000       1.00800           0
     18719 TIP3     449      TIP3     OH2      OT      -0.834000       15.9994           0
     18720 TIP3     449      TIP3     H1       HT       0.417000       1.00800           0
     18721 TIP3     449      TIP3     H2       HT       0.417000       1.00800           0
     18722 TIP3     450      TIP3     OH2      OT      -0.834000       15.9994           0
     18723 TIP3     450      TIP3     H1       HT       0.417000       1.00800           0
     18724 TIP3     450      TIP3     H2       HT       0.417000       1.00800           0
     18725 TIP3     451      TIP3     OH2      OT      -0.834000       15.9994           0
     18726 TIP3     451      TIP3     H1       HT       0.417000       1.00800           0
     18727 TIP3     451      TIP3     H2       HT       0.417000       1.00800           0
     18728 TIP3     452      TIP3     OH2      OT      -0.834000       15.9994           0
     18729 TIP3     452      TIP3     H1       HT       0.417000       1.00800           0
     18730 TIP3     452      TIP3     H2       HT       0.417000       1.00800           0
     18731 TIP3     453      TIP3     OH2      OT      -0.834000       15.9994           0
     18732 TIP3     453      TIP3     H1       HT       0.417000       1.00800           0
     18733 TIP3     453      TIP3     H2       HT       0.417000       1.00800           0
     18734 TIP3     454      TIP3     OH2      OT      -0.834000       15.9994           0
     18735 TIP3     454      TIP3     H1       HT       0.417000       1.00800           0
     18736 TIP3     454      TIP3     H2       HT       0.417000       1.00800           0
     18737 TIP3     455      TIP3     OH2      OT      -0.834000       15.9994           0
     18738 TIP3     455      TIP3     H1       HT       0.417000       1.00800           0
     18739 TIP3     455      TIP3     H2       HT       0.417000       1.00800           0
     18740 TIP3     456      TIP3     OH2      OT      -0.834000       15.9994           0
     18741 TIP3     456      TIP3     H1       HT       0.417000       1.00800           0
     18742 TIP3     456      TIP3     H2       HT       0.417000       1.00800           0
     18743 TIP3     457      TIP3     OH2      OT      -0.834000       15.9994           0
     18744 TIP3     457      TIP3     H1       HT       0.417000       1.00800           0
     18745 TIP3     457      TIP3     H2       HT       0.417000       1.00800           0
     18746 TIP3     458      TIP3     OH2      OT      -0.834000       15.9994           0
     18747 TIP3     458      TIP3     H1       HT       0.417000       1.00800           0
     18748 TIP3     458      TIP3     H2       HT       0.417000       1.00800           0
     18749 TIP3     459      TIP3     OH2      OT      -0.834000       15.9994           0
     18750 TIP3     459      TIP3     H1       HT       0.417000       1.00800           0
     18751 TIP3     459      TIP3     H2       HT       0.417000       1.00800           0
     18752 TIP3     460      TIP3     OH2      OT      -0.834000       15.9994           0
     18753 TIP3     460      TIP3     H1       HT       0.417000       1.00800           0
     18754 TIP3     460      TIP3     H2       HT       0.417000       1.00800           0
     18755 TIP3     461      TIP3     OH2      OT      -0.834000       15.9994           0
     18756 TIP3     461      TIP3     H1       HT       0.417000       1.00800           0
     18757 TIP3     461      TIP3     H2       HT       0.417000       1.00800           0
     18758 TIP3     462      TIP3     OH2      OT      -0.834000       15.9994           0
     18759 TIP3     462      TIP3     H1       HT       0.417000       1.00800           0
     18760 TIP3     462      TIP3     H2       HT       0.417000       1.00800           0
     18761 TIP3     463      TIP3     OH2      OT      -0.834000       15.9994           0
     18762 TIP3     463      TIP3     H1       HT       0.417000       1.00800           0
     18763 TIP3     463      TIP3     H2       HT       0.417000       1.00800           0
     18764 TIP3     464      TIP3     OH2      OT      -0.834000       15.9994           0
     18765 TIP3     464      TIP3     H1       HT       0.417000       1.00800           0
     18766 TIP3     464      TIP3     H2       HT       0.417000       1.00800           0
     18767 TIP3     465      TIP3     OH2      OT      -0.834000       15.9994           0
     18768 TIP3     465      TIP3     H1       HT       0.417000       1.00800           0
     18769 TIP3     465      TIP3     H2       HT       0.417000       1.00800           0
     18770 TIP3     466      TIP3     OH2      OT      -0.834000       15.9994           0
     18771 TIP3     466      TIP3     H1       HT       0.417000       1.00800           0
     18772 TIP3     466      TIP3     H2       HT       0.417000       1.00800           0
     18773 TIP3     467      TIP3     OH2      OT      -0.834000       15.9994           0
     18774 TIP3     467      TIP3     H1       HT       0.417000       1.00800           0
     18775 TIP3     467      TIP3     H2       HT       0.417000       1.00800           0
     18776 TIP3     468      TIP3     OH2      OT      -0.834000       15.9994           0
     18777 TIP3     468      TIP3     H1       HT       0.417000       1.00800           0
     18778 TIP3     468      TIP3     H2       HT       0.417000       1.00800           0
     18779 TIP3     469      TIP3     OH2      OT      -0.834000       15.9994           0
     18780 TIP3     469      TIP3     H1       HT       0.417000       1.00800           0
     18781 TIP3     469      TIP3     H2       HT       0.417000       1.00800           0
     18782 TIP3     470      TIP3     OH2      OT      -0.834000       15.9994           0
     18783 TIP3     470      TIP3     H1       HT       0.417000       1.00800           0
     18784 TIP3     470      TIP3     H2       HT       0.417000       1.00800           0
     18785 TIP3     471      TIP3     OH2      OT      -0.834000       15.9994           0
     18786 TIP3     471      TIP3     H1       HT       0.417000       1.00800           0
     18787 TIP3     471      TIP3     H2       HT       0.417000       1.00800           0
     18788 TIP3     472      TIP3     OH2      OT      -0.834000       15.9994           0
     18789 TIP3     472      TIP3     H1       HT       0.417000       1.00800           0
     18790 TIP3     472      TIP3     H2       HT       0.417000       1.00800           0
     18791 TIP3     473      TIP3     OH2      OT      -0.834000       15.9994           0
     18792 TIP3     473      TIP3     H1       HT       0.417000       1.00800           0
     18793 TIP3     473      TIP3     H2       HT       0.417000       1.00800           0
     18794 TIP3     474      TIP3     OH2      OT      -0.834000       15.9994           0
     18795 TIP3     474      TIP3     H1       HT       0.417000       1.00800           0
     18796 TIP3     474      TIP3     H2       HT       0.417000       1.00800           0
     18797 TIP3     475      TIP3     OH2      OT      -0.834000       15.9994           0
     18798 TIP3     475      TIP3     H1       HT       0.417000       1.00800           0
     18799 TIP3     475      TIP3     H2       HT       0.417000       1.00800           0
     18800 TIP3     476      TIP3     OH2      OT      -0.834000       15.9994           0
     18801 TIP3     476      TIP3     H1       HT       0.417000       1.00800           0
     18802 TIP3     476      TIP3     H2       HT       0.417000       1.00800           0
     18803 TIP3     477      TIP3     OH2      OT      -0.834000       15.9994           0
     18804 TIP3     477      TIP3     H1       HT       0.417000       1.00800           0
     18805 TIP3     477      TIP3     H2       HT       0.417000       1.00800           0
     18806 TIP3     478      TIP3     OH2      OT      -0.834000       15.9994           0
     18807 TIP3     478      TIP3     H1       HT       0.417000       1.00800           0
     18808 TIP3     478      TIP3     H2       HT       0.417000       1.00800           0
     18809 TIP3     479      TIP3     OH2      OT      -0.834000       15.9994           0
     18810 TIP3     479      TIP3     H1       HT       0.417000       1.00800           0
     18811 TIP3     479      TIP3     H2       HT       0.417000       1.00800           0
     18812 TIP3     480      TIP3     OH2      OT      -0.834000       15.9994           0
     18813 TIP3     480      TIP3     H1       HT       0.417000       1.00800           0
     18814 TIP3     480      TIP3     H2       HT       0.417000       1.00800           0
     18815 TIP3     481      TIP3     OH2      OT      -0.834000       15.9994           0
     18816 TIP3     481      TIP3     H1       HT       0.417000       1.00800           0
     18817 TIP3     481      TIP3     H2       HT       0.417000       1.00800           0
     18818 TIP3     482      TIP3     OH2      OT      -0.834000       15.9994           0
     18819 TIP3     482      TIP3     H1       HT       0.417000       1.00800           0
     18820 TIP3     482      TIP3     H2       HT       0.417000       1.00800           0
     18821 TIP3     483      TIP3     OH2      OT      -0.834000       15.9994           0
     18822 TIP3     483      TIP3     H1       HT       0.417000       1.00800           0
     18823 TIP3     483      TIP3     H2       HT       0.417000       1.00800           0
     18824 TIP3     484      TIP3     OH2      OT      -0.834000       15.9994           0
     18825 TIP3     484      TIP3     H1       HT       0.417000       1.00800           0
     18826 TIP3     484      TIP3     H2       HT       0.417000       1.00800           0
     18827 TIP3     485      TIP3     OH2      OT      -0.834000       15.9994           0
     18828 TIP3     485      TIP3     H1       HT       0.417000       1.00800           0
     18829 TIP3     485      TIP3     H2       HT       0.417000       1.00800           0
     18830 TIP3     486      TIP3     OH2      OT      -0.834000       15.9994           0
     18831 TIP3     486      TIP3     H1       HT       0.417000       1.00800           0
     18832 TIP3     486      TIP3     H2       HT       0.417000       1.00800           0
     18833 TIP3     487      TIP3     OH2      OT      -0.834000       15.9994           0
     18834 TIP3     487      TIP3     H1       HT       0.417000       1.00800           0
     18835 TIP3     487      TIP3     H2       HT       0.417000       1.00800           0
     18836 TIP3     488      TIP3     OH2      OT      -0.834000       15.9994           0
     18837 TIP3     488      TIP3     H1       HT       0.417000       1.00800           0
     18838 TIP3     488      TIP3     H2       HT       0.417000       1.00800           0
     18839 TIP3     489      TIP3     OH2      OT      -0.834000       15.9994           0
     18840 TIP3     489      TIP3     H1       HT       0.417000       1.00800           0
     18841 TIP3     489      TIP3     H2       HT       0.417000       1.00800           0
     18842 TIP3     490      TIP3     OH2      OT      -0.834000       15.9994           0
     18843 TIP3     490      TIP3     H1       HT       0.417000       1.00800           0
     18844 TIP3     490      TIP3     H2       HT       0.417000       1.00800           0
     18845 TIP3     491      TIP3     OH2      OT      -0.834000       15.9994           0
     18846 TIP3     491      TIP3     H1       HT       0.417000       1.00800           0
     18847 TIP3     491      TIP3     H2       HT       0.417000       1.00800           0
     18848 TIP3     492      TIP3     OH2      OT      -0.834000       15.9994           0
     18849 TIP3     492      TIP3     H1       HT       0.417000       1.00800           0
     18850 TIP3     492      TIP3     H2       HT       0.417000       1.00800           0
     18851 TIP3     493      TIP3     OH2      OT      -0.834000       15.9994           0
     18852 TIP3     493      TIP3     H1       HT       0.417000       1.00800           0
     18853 TIP3     493      TIP3     H2       HT       0.417000       1.00800           0
     18854 TIP3     494      TIP3     OH2      OT      -0.834000       15.9994           0
     18855 TIP3     494      TIP3     H1       HT       0.417000       1.00800           0
     18856 TIP3     494      TIP3     H2       HT       0.417000       1.00800           0
     18857 TIP3     495      TIP3     OH2      OT      -0.834000       15.9994           0
     18858 TIP3     495      TIP3     H1       HT       0.417000       1.00800           0
     18859 TIP3     495      TIP3     H2       HT       0.417000       1.00800           0
     18860 TIP3     496      TIP3     OH2      OT      -0.834000       15.9994           0
     18861 TIP3     496      TIP3     H1       HT       0.417000       1.00800           0
     18862 TIP3     496      TIP3     H2       HT       0.417000       1.00800           0
     18863 TIP3     497      TIP3     OH2      OT      -0.834000       15.9994           0
     18864 TIP3     497      TIP3     H1       HT       0.417000       1.00800           0
     18865 TIP3     497      TIP3     H2       HT       0.417000       1.00800           0
     18866 TIP3     498      TIP3     OH2      OT      -0.834000       15.9994           0
     18867 TIP3     498      TIP3     H1       HT       0.417000       1.00800           0
     18868 TIP3     498      TIP3     H2       HT       0.417000       1.00800           0
     18869 TIP3     499      TIP3     OH2      OT      -0.834000       15.9994           0
     18870 TIP3     499      TIP3     H1       HT       0.417000       1.00800           0
     18871 TIP3     499      TIP3     H2       HT       0.417000       1.00800           0
     18872 TIP3     500      TIP3     OH2      OT      -0.834000       15.9994           0
     18873 TIP3     500      TIP3     H1       HT       0.417000       1.00800           0
     18874 TIP3     500      TIP3     H2       HT       0.417000       1.00800           0
     18875 TIP3     501      TIP3     OH2      OT      -0.834000       15.9994           0
     18876 TIP3     501      TIP3     H1       HT       0.417000       1.00800           0
     18877 TIP3     501      TIP3     H2       HT       0.417000       1.00800           0
     18878 TIP3     502      TIP3     OH2      OT      -0.834000       15.9994           0
     18879 TIP3     502      TIP3     H1       HT       0.417000       1.00800           0
     18880 TIP3     502      TIP3     H2       HT       0.417000       1.00800           0
     18881 TIP3     503      TIP3     OH2      OT      -0.834000       15.9994           0
     18882 TIP3     503      TIP3     H1       HT       0.417000       1.00800           0
     18883 TIP3     503      TIP3     H2       HT       0.417000       1.00800           0
     18884 TIP3     504      TIP3     OH2      OT      -0.834000       15.9994           0
     18885 TIP3     504      TIP3     H1       HT       0.417000       1.00800           0
     18886 TIP3     504      TIP3     H2       HT       0.417000       1.00800           0
     18887 TIP3     505      TIP3     OH2      OT      -0.834000       15.9994           0
     18888 TIP3     505      TIP3     H1       HT       0.417000       1.00800           0
     18889 TIP3     505      TIP3     H2       HT       0.417000       1.00800           0
     18890 TIP3     506      TIP3     OH2      OT      -0.834000       15.9994           0
     18891 TIP3     506      TIP3     H1       HT       0.417000       1.00800           0
     18892 TIP3     506      TIP3     H2       HT       0.417000       1.00800           0
     18893 TIP3     507      TIP3     OH2      OT      -0.834000       15.9994           0
     18894 TIP3     507      TIP3     H1       HT       0.417000       1.00800           0
     18895 TIP3     507      TIP3     H2       HT       0.417000       1.00800           0
     18896 TIP3     508      TIP3     OH2      OT      -0.834000       15.9994           0
     18897 TIP3     508      TIP3     H1       HT       0.417000       1.00800           0
     18898 TIP3     508      TIP3     H2       HT       0.417000       1.00800           0
     18899 TIP3     509      TIP3     OH2      OT      -0.834000       15.9994           0
     18900 TIP3     509      TIP3     H1       HT       0.417000       1.00800           0
     18901 TIP3     509      TIP3     H2       HT       0.417000       1.00800           0
     18902 TIP3     510      TIP3     OH2      OT      -0.834000       15.9994           0
     18903 TIP3     510      TIP3     H1       HT       0.417000       1.00800           0
     18904 TIP3     510      TIP3     H2       HT       0.417000       1.00800           0
     18905 TIP3     511      TIP3     OH2      OT      -0.834000       15.9994           0
     18906 TIP3     511      TIP3     H1       HT       0.417000       1.00800           0
     18907 TIP3     511      TIP3     H2       HT       0.417000       1.00800           0
     18908 TIP3     512      TIP3     OH2      OT      -0.834000       15.9994           0
     18909 TIP3     512      TIP3     H1       HT       0.417000       1.00800           0
     18910 TIP3     512      TIP3     H2       HT       0.417000       1.00800           0
     18911 TIP3     513      TIP3     OH2      OT      -0.834000       15.9994           0
     18912 TIP3     513      TIP3     H1       HT       0.417000       1.00800           0
     18913 TIP3     513      TIP3     H2       HT       0.417000       1.00800           0
     18914 TIP3     514      TIP3     OH2      OT      -0.834000       15.9994           0
     18915 TIP3     514      TIP3     H1       HT       0.417000       1.00800           0
     18916 TIP3     514      TIP3     H2       HT       0.417000       1.00800           0
     18917 TIP3     515      TIP3     OH2      OT      -0.834000       15.9994           0
     18918 TIP3     515      TIP3     H1       HT       0.417000       1.00800           0
     18919 TIP3     515      TIP3     H2       HT       0.417000       1.00800           0
     18920 TIP3     516      TIP3     OH2      OT      -0.834000       15.9994           0
     18921 TIP3     516      TIP3     H1       HT       0.417000       1.00800           0
     18922 TIP3     516      TIP3     H2       HT       0.417000       1.00800           0
     18923 TIP3     517      TIP3     OH2      OT      -0.834000       15.9994           0
     18924 TIP3     517      TIP3     H1       HT       0.417000       1.00800           0
     18925 TIP3     517      TIP3     H2       HT       0.417000       1.00800           0
     18926 TIP3     518      TIP3     OH2      OT      -0.834000       15.9994           0
     18927 TIP3     518      TIP3     H1       HT       0.417000       1.00800           0
     18928 TIP3     518      TIP3     H2       HT       0.417000       1.00800           0
     18929 TIP3     519      TIP3     OH2      OT      -0.834000       15.9994           0
     18930 TIP3     519      TIP3     H1       HT       0.417000       1.00800           0
     18931 TIP3     519      TIP3     H2       HT       0.417000       1.00800           0
     18932 TIP3     520      TIP3     OH2      OT      -0.834000       15.9994           0
     18933 TIP3     520      TIP3     H1       HT       0.417000       1.00800           0
     18934 TIP3     520      TIP3     H2       HT       0.417000       1.00800           0
     18935 TIP3     521      TIP3     OH2      OT      -0.834000       15.9994           0
     18936 TIP3     521      TIP3     H1       HT       0.417000       1.00800           0
     18937 TIP3     521      TIP3     H2       HT       0.417000       1.00800           0
     18938 TIP3     522      TIP3     OH2      OT      -0.834000       15.9994           0
     18939 TIP3     522      TIP3     H1       HT       0.417000       1.00800           0
     18940 TIP3     522      TIP3     H2       HT       0.417000       1.00800           0
     18941 TIP3     523      TIP3     OH2      OT      -0.834000       15.9994           0
     18942 TIP3     523      TIP3     H1       HT       0.417000       1.00800           0
     18943 TIP3     523      TIP3     H2       HT       0.417000       1.00800           0
     18944 TIP3     524      TIP3     OH2      OT      -0.834000       15.9994           0
     18945 TIP3     524      TIP3     H1       HT       0.417000       1.00800           0
     18946 TIP3     524      TIP3     H2       HT       0.417000       1.00800           0
     18947 TIP3     525      TIP3     OH2      OT      -0.834000       15.9994           0
     18948 TIP3     525      TIP3     H1       HT       0.417000       1.00800           0
     18949 TIP3     525      TIP3     H2       HT       0.417000       1.00800           0
     18950 TIP3     526      TIP3     OH2      OT      -0.834000       15.9994           0
     18951 TIP3     526      TIP3     H1       HT       0.417000       1.00800           0
     18952 TIP3     526      TIP3     H2       HT       0.417000       1.00800           0
     18953 TIP3     527      TIP3     OH2      OT      -0.834000       15.9994           0
     18954 TIP3     527      TIP3     H1       HT       0.417000       1.00800           0
     18955 TIP3     527      TIP3     H2       HT       0.417000       1.00800           0
     18956 TIP3     528      TIP3     OH2      OT      -0.834000       15.9994           0
     18957 TIP3     528      TIP3     H1       HT       0.417000       1.00800           0
     18958 TIP3     528      TIP3     H2       HT       0.417000       1.00800           0
     18959 TIP3     529      TIP3     OH2      OT      -0.834000       15.9994           0
     18960 TIP3     529      TIP3     H1       HT       0.417000       1.00800           0
     18961 TIP3     529      TIP3     H2       HT       0.417000       1.00800           0
     18962 TIP3     530      TIP3     OH2      OT      -0.834000       15.9994           0
     18963 TIP3     530      TIP3     H1       HT       0.417000       1.00800           0
     18964 TIP3     530      TIP3     H2       HT       0.417000       1.00800           0
     18965 TIP3     531      TIP3     OH2      OT      -0.834000       15.9994           0
     18966 TIP3     531      TIP3     H1       HT       0.417000       1.00800           0
     18967 TIP3     531      TIP3     H2       HT       0.417000       1.00800           0
     18968 TIP3     532      TIP3     OH2      OT      -0.834000       15.9994           0
     18969 TIP3     532      TIP3     H1       HT       0.417000       1.00800           0
     18970 TIP3     532      TIP3     H2       HT       0.417000       1.00800           0
     18971 TIP3     533      TIP3     OH2      OT      -0.834000       15.9994           0
     18972 TIP3     533      TIP3     H1       HT       0.417000       1.00800           0
     18973 TIP3     533      TIP3     H2       HT       0.417000       1.00800           0
     18974 TIP3     534      TIP3     OH2      OT      -0.834000       15.9994           0
     18975 TIP3     534      TIP3     H1       HT       0.417000       1.00800           0
     18976 TIP3     534      TIP3     H2       HT       0.417000       1.00800           0
     18977 TIP3     535      TIP3     OH2      OT      -0.834000       15.9994           0
     18978 TIP3     535      TIP3     H1       HT       0.417000       1.00800           0
     18979 TIP3     535      TIP3     H2       HT       0.417000       1.00800           0
     18980 TIP3     536      TIP3     OH2      OT      -0.834000       15.9994           0
     18981 TIP3     536      TIP3     H1       HT       0.417000       1.00800           0
     18982 TIP3     536      TIP3     H2       HT       0.417000       1.00800           0
     18983 TIP3     537      TIP3     OH2      OT      -0.834000       15.9994           0
     18984 TIP3     537      TIP3     H1       HT       0.417000       1.00800           0
     18985 TIP3     537      TIP3     H2       HT       0.417000       1.00800           0
     18986 TIP3     538      TIP3     OH2      OT      -0.834000       15.9994           0
     18987 TIP3     538      TIP3     H1       HT       0.417000       1.00800           0
     18988 TIP3     538      TIP3     H2       HT       0.417000       1.00800           0
     18989 TIP3     539      TIP3     OH2      OT      -0.834000       15.9994           0
     18990 TIP3     539      TIP3     H1       HT       0.417000       1.00800           0
     18991 TIP3     539      TIP3     H2       HT       0.417000       1.00800           0
     18992 TIP3     540      TIP3     OH2      OT      -0.834000       15.9994           0
     18993 TIP3     540      TIP3     H1       HT       0.417000       1.00800           0
     18994 TIP3     540      TIP3     H2       HT       0.417000       1.00800           0
     18995 TIP3     541      TIP3     OH2      OT      -0.834000       15.9994           0
     18996 TIP3     541      TIP3     H1       HT       0.417000       1.00800           0
     18997 TIP3     541      TIP3     H2       HT       0.417000       1.00800           0
     18998 TIP3     542      TIP3     OH2      OT      -0.834000       15.9994           0
     18999 TIP3     542      TIP3     H1       HT       0.417000       1.00800           0
     19000 TIP3     542      TIP3     H2       HT       0.417000       1.00800           0
     19001 TIP3     543      TIP3     OH2      OT      -0.834000       15.9994           0
     19002 TIP3     543      TIP3     H1       HT       0.417000       1.00800           0
     19003 TIP3     543      TIP3     H2       HT       0.417000       1.00800           0
     19004 TIP3     544      TIP3     OH2      OT      -0.834000       15.9994           0
     19005 TIP3     544      TIP3     H1       HT       0.417000       1.00800           0
     19006 TIP3     544      TIP3     H2       HT       0.417000       1.00800           0
     19007 TIP3     545      TIP3     OH2      OT      -0.834000       15.9994           0
     19008 TIP3     545      TIP3     H1       HT       0.417000       1.00800           0
     19009 TIP3     545      TIP3     H2       HT       0.417000       1.00800           0
     19010 TIP3     546      TIP3     OH2      OT      -0.834000       15.9994           0
     19011 TIP3     546      TIP3     H1       HT       0.417000       1.00800           0
     19012 TIP3     546      TIP3     H2       HT       0.417000       1.00800           0
     19013 TIP3     547      TIP3     OH2      OT      -0.834000       15.9994           0
     19014 TIP3     547      TIP3     H1       HT       0.417000       1.00800           0
     19015 TIP3     547      TIP3     H2       HT       0.417000       1.00800           0
     19016 TIP3     548      TIP3     OH2      OT      -0.834000       15.9994           0
     19017 TIP3     548      TIP3     H1       HT       0.417000       1.00800           0
     19018 TIP3     548      TIP3     H2       HT       0.417000       1.00800           0
     19019 TIP3     549      TIP3     OH2      OT      -0.834000       15.9994           0
     19020 TIP3     549      TIP3     H1       HT       0.417000       1.00800           0
     19021 TIP3     549      TIP3     H2       HT       0.417000       1.00800           0
     19022 TIP3     550      TIP3     OH2      OT      -0.834000       15.9994           0
     19023 TIP3     550      TIP3     H1       HT       0.417000       1.00800           0
     19024 TIP3     550      TIP3     H2       HT       0.417000       1.00800           0
     19025 TIP3     551      TIP3     OH2      OT      -0.834000       15.9994           0
     19026 TIP3     551      TIP3     H1       HT       0.417000       1.00800           0
     19027 TIP3     551      TIP3     H2       HT       0.417000       1.00800           0
     19028 TIP3     552      TIP3     OH2      OT      -0.834000       15.9994           0
     19029 TIP3     552      TIP3     H1       HT       0.417000       1.00800           0
     19030 TIP3     552      TIP3     H2       HT       0.417000       1.00800           0
     19031 TIP3     553      TIP3     OH2      OT      -0.834000       15.9994           0
     19032 TIP3     553      TIP3     H1       HT       0.417000       1.00800           0
     19033 TIP3     553      TIP3     H2       HT       0.417000       1.00800           0
     19034 TIP3     554      TIP3     OH2      OT      -0.834000       15.9994           0
     19035 TIP3     554      TIP3     H1       HT       0.417000       1.00800           0
     19036 TIP3     554      TIP3     H2       HT       0.417000       1.00800           0
     19037 TIP3     555      TIP3     OH2      OT      -0.834000       15.9994           0
     19038 TIP3     555      TIP3     H1       HT       0.417000       1.00800           0
     19039 TIP3     555      TIP3     H2       HT       0.417000       1.00800           0
     19040 TIP3     556      TIP3     OH2      OT      -0.834000       15.9994           0
     19041 TIP3     556      TIP3     H1       HT       0.417000       1.00800           0
     19042 TIP3     556      TIP3     H2       HT       0.417000       1.00800           0
     19043 TIP3     557      TIP3     OH2      OT      -0.834000       15.9994           0
     19044 TIP3     557      TIP3     H1       HT       0.417000       1.00800           0
     19045 TIP3     557      TIP3     H2       HT       0.417000       1.00800           0
     19046 TIP3     558      TIP3     OH2      OT      -0.834000       15.9994           0
     19047 TIP3     558      TIP3     H1       HT       0.417000       1.00800           0
     19048 TIP3     558      TIP3     H2       HT       0.417000       1.00800           0
     19049 TIP3     559      TIP3     OH2      OT      -0.834000       15.9994           0
     19050 TIP3     559      TIP3     H1       HT       0.417000       1.00800           0
     19051 TIP3     559      TIP3     H2       HT       0.417000       1.00800           0
     19052 TIP3     560      TIP3     OH2      OT      -0.834000       15.9994           0
     19053 TIP3     560      TIP3     H1       HT       0.417000       1.00800           0
     19054 TIP3     560      TIP3     H2       HT       0.417000       1.00800           0
     19055 TIP3     561      TIP3     OH2      OT      -0.834000       15.9994           0
     19056 TIP3     561      TIP3     H1       HT       0.417000       1.00800           0
     19057 TIP3     561      TIP3     H2       HT       0.417000       1.00800           0
     19058 TIP3     562      TIP3     OH2      OT      -0.834000       15.9994           0
     19059 TIP3     562      TIP3     H1       HT       0.417000       1.00800           0
     19060 TIP3     562      TIP3     H2       HT       0.417000       1.00800           0
     19061 TIP3     563      TIP3     OH2      OT      -0.834000       15.9994           0
     19062 TIP3     563      TIP3     H1       HT       0.417000       1.00800           0
     19063 TIP3     563      TIP3     H2       HT       0.417000       1.00800           0
     19064 TIP3     564      TIP3     OH2      OT      -0.834000       15.9994           0
     19065 TIP3     564      TIP3     H1       HT       0.417000       1.00800           0
     19066 TIP3     564      TIP3     H2       HT       0.417000       1.00800           0
     19067 TIP3     565      TIP3     OH2      OT      -0.834000       15.9994           0
     19068 TIP3     565      TIP3     H1       HT       0.417000       1.00800           0
     19069 TIP3     565      TIP3     H2       HT       0.417000       1.00800           0
     19070 TIP3     566      TIP3     OH2      OT      -0.834000       15.9994           0
     19071 TIP3     566      TIP3     H1       HT       0.417000       1.00800           0
     19072 TIP3     566      TIP3     H2       HT       0.417000       1.00800           0
     19073 TIP3     567      TIP3     OH2      OT      -0.834000       15.9994           0
     19074 TIP3     567      TIP3     H1       HT       0.417000       1.00800           0
     19075 TIP3     567      TIP3     H2       HT       0.417000       1.00800           0
     19076 TIP3     568      TIP3     OH2      OT      -0.834000       15.9994           0
     19077 TIP3     568      TIP3     H1       HT       0.417000       1.00800           0
     19078 TIP3     568      TIP3     H2       HT       0.417000       1.00800           0
     19079 TIP3     569      TIP3     OH2      OT      -0.834000       15.9994           0
     19080 TIP3     569      TIP3     H1       HT       0.417000       1.00800           0
     19081 TIP3     569      TIP3     H2       HT       0.417000       1.00800           0
     19082 TIP3     570      TIP3     OH2      OT      -0.834000       15.9994           0
     19083 TIP3     570      TIP3     H1       HT       0.417000       1.00800           0
     19084 TIP3     570      TIP3     H2       HT       0.417000       1.00800           0
     19085 TIP3     571      TIP3     OH2      OT      -0.834000       15.9994           0
     19086 TIP3     571      TIP3     H1       HT       0.417000       1.00800           0
     19087 TIP3     571      TIP3     H2       HT       0.417000       1.00800           0
     19088 TIP3     572      TIP3     OH2      OT      -0.834000       15.9994           0
     19089 TIP3     572      TIP3     H1       HT       0.417000       1.00800           0
     19090 TIP3     572      TIP3     H2       HT       0.417000       1.00800           0
     19091 TIP3     573      TIP3     OH2      OT      -0.834000       15.9994           0
     19092 TIP3     573      TIP3     H1       HT       0.417000       1.00800           0
     19093 TIP3     573      TIP3     H2       HT       0.417000       1.00800           0
     19094 TIP3     574      TIP3     OH2      OT      -0.834000       15.9994           0
     19095 TIP3     574      TIP3     H1       HT       0.417000       1.00800           0
     19096 TIP3     574      TIP3     H2       HT       0.417000       1.00800           0
     19097 TIP3     575      TIP3     OH2      OT      -0.834000       15.9994           0
     19098 TIP3     575      TIP3     H1       HT       0.417000       1.00800           0
     19099 TIP3     575      TIP3     H2       HT       0.417000       1.00800           0
     19100 TIP3     576      TIP3     OH2      OT      -0.834000       15.9994           0
     19101 TIP3     576      TIP3     H1       HT       0.417000       1.00800           0
     19102 TIP3     576      TIP3     H2       HT       0.417000       1.00800           0
     19103 TIP3     577      TIP3     OH2      OT      -0.834000       15.9994           0
     19104 TIP3     577      TIP3     H1       HT       0.417000       1.00800           0
     19105 TIP3     577      TIP3     H2       HT       0.417000       1.00800           0
     19106 TIP3     578      TIP3     OH2      OT      -0.834000       15.9994           0
     19107 TIP3     578      TIP3     H1       HT       0.417000       1.00800           0
     19108 TIP3     578      TIP3     H2       HT       0.417000       1.00800           0
     19109 TIP3     579      TIP3     OH2      OT      -0.834000       15.9994           0
     19110 TIP3     579      TIP3     H1       HT       0.417000       1.00800           0
     19111 TIP3     579      TIP3     H2       HT       0.417000       1.00800           0
     19112 TIP3     580      TIP3     OH2      OT      -0.834000       15.9994           0
     19113 TIP3     580      TIP3     H1       HT       0.417000       1.00800           0
     19114 TIP3     580      TIP3     H2       HT       0.417000       1.00800           0
     19115 TIP3     581      TIP3     OH2      OT      -0.834000       15.9994           0
     19116 TIP3     581      TIP3     H1       HT       0.417000       1.00800           0
     19117 TIP3     581      TIP3     H2       HT       0.417000       1.00800           0
     19118 TIP3     582      TIP3     OH2      OT      -0.834000       15.9994           0
     19119 TIP3     582      TIP3     H1       HT       0.417000       1.00800           0
     19120 TIP3     582      TIP3     H2       HT       0.417000       1.00800           0
     19121 TIP3     583      TIP3     OH2      OT      -0.834000       15.9994           0
     19122 TIP3     583      TIP3     H1       HT       0.417000       1.00800           0
     19123 TIP3     583      TIP3     H2       HT       0.417000       1.00800           0
     19124 TIP3     584      TIP3     OH2      OT      -0.834000       15.9994           0
     19125 TIP3     584      TIP3     H1       HT       0.417000       1.00800           0
     19126 TIP3     584      TIP3     H2       HT       0.417000       1.00800           0
     19127 TIP3     585      TIP3     OH2      OT      -0.834000       15.9994           0
     19128 TIP3     585      TIP3     H1       HT       0.417000       1.00800           0
     19129 TIP3     585      TIP3     H2       HT       0.417000       1.00800           0
     19130 TIP3     586      TIP3     OH2      OT      -0.834000       15.9994           0
     19131 TIP3     586      TIP3     H1       HT       0.417000       1.00800           0
     19132 TIP3     586      TIP3     H2       HT       0.417000       1.00800           0
     19133 TIP3     587      TIP3     OH2      OT      -0.834000       15.9994           0
     19134 TIP3     587      TIP3     H1       HT       0.417000       1.00800           0
     19135 TIP3     587      TIP3     H2       HT       0.417000       1.00800           0
     19136 TIP3     588      TIP3     OH2      OT      -0.834000       15.9994           0
     19137 TIP3     588      TIP3     H1       HT       0.417000       1.00800           0
     19138 TIP3     588      TIP3     H2       HT       0.417000       1.00800           0
     19139 TIP3     589      TIP3     OH2      OT      -0.834000       15.9994           0
     19140 TIP3     589      TIP3     H1       HT       0.417000       1.00800           0
     19141 TIP3     589      TIP3     H2       HT       0.417000       1.00800           0
     19142 TIP3     590      TIP3     OH2      OT      -0.834000       15.9994           0
     19143 TIP3     590      TIP3     H1       HT       0.417000       1.00800           0
     19144 TIP3     590      TIP3     H2       HT       0.417000       1.00800           0
     19145 TIP3     591      TIP3     OH2      OT      -0.834000       15.9994           0
     19146 TIP3     591      TIP3     H1       HT       0.417000       1.00800           0
     19147 TIP3     591      TIP3     H2       HT       0.417000       1.00800           0
     19148 TIP3     592      TIP3     OH2      OT      -0.834000       15.9994           0
     19149 TIP3     592      TIP3     H1       HT       0.417000       1.00800           0
     19150 TIP3     592      TIP3     H2       HT       0.417000       1.00800           0
     19151 TIP3     593      TIP3     OH2      OT      -0.834000       15.9994           0
     19152 TIP3     593      TIP3     H1       HT       0.417000       1.00800           0
     19153 TIP3     593      TIP3     H2       HT       0.417000       1.00800           0
     19154 TIP3     594      TIP3     OH2      OT      -0.834000       15.9994           0
     19155 TIP3     594      TIP3     H1       HT       0.417000       1.00800           0
     19156 TIP3     594      TIP3     H2       HT       0.417000       1.00800           0
     19157 TIP3     595      TIP3     OH2      OT      -0.834000       15.9994           0
     19158 TIP3     595      TIP3     H1       HT       0.417000       1.00800           0
     19159 TIP3     595      TIP3     H2       HT       0.417000       1.00800           0
     19160 TIP3     596      TIP3     OH2      OT      -0.834000       15.9994           0
     19161 TIP3     596      TIP3     H1       HT       0.417000       1.00800           0
     19162 TIP3     596      TIP3     H2       HT       0.417000       1.00800           0
     19163 TIP3     597      TIP3     OH2      OT      -0.834000       15.9994           0
     19164 TIP3     597      TIP3     H1       HT       0.417000       1.00800           0
     19165 TIP3     597      TIP3     H2       HT       0.417000       1.00800           0
     19166 TIP3     598      TIP3     OH2      OT      -0.834000       15.9994           0
     19167 TIP3     598      TIP3     H1       HT       0.417000       1.00800           0
     19168 TIP3     598      TIP3     H2       HT       0.417000       1.00800           0
     19169 TIP3     599      TIP3     OH2      OT      -0.834000       15.9994           0
     19170 TIP3     599      TIP3     H1       HT       0.417000       1.00800           0
     19171 TIP3     599      TIP3     H2       HT       0.417000       1.00800           0
     19172 TIP3     600      TIP3     OH2      OT      -0.834000       15.9994           0
     19173 TIP3     600      TIP3     H1       HT       0.417000       1.00800           0
     19174 TIP3     600      TIP3     H2       HT       0.417000       1.00800           0
     19175 TIP3     601      TIP3     OH2      OT      -0.834000       15.9994           0
     19176 TIP3     601      TIP3     H1       HT       0.417000       1.00800           0
     19177 TIP3     601      TIP3     H2       HT       0.417000       1.00800           0
     19178 TIP3     602      TIP3     OH2      OT      -0.834000       15.9994           0
     19179 TIP3     602      TIP3     H1       HT       0.417000       1.00800           0
     19180 TIP3     602      TIP3     H2       HT       0.417000       1.00800           0
     19181 TIP3     603      TIP3     OH2      OT      -0.834000       15.9994           0
     19182 TIP3     603      TIP3     H1       HT       0.417000       1.00800           0
     19183 TIP3     603      TIP3     H2       HT       0.417000       1.00800           0
     19184 TIP3     604      TIP3     OH2      OT      -0.834000       15.9994           0
     19185 TIP3     604      TIP3     H1       HT       0.417000       1.00800           0
     19186 TIP3     604      TIP3     H2       HT       0.417000       1.00800           0
     19187 TIP3     605      TIP3     OH2      OT      -0.834000       15.9994           0
     19188 TIP3     605      TIP3     H1       HT       0.417000       1.00800           0
     19189 TIP3     605      TIP3     H2       HT       0.417000       1.00800           0
     19190 TIP3     606      TIP3     OH2      OT      -0.834000       15.9994           0
     19191 TIP3     606      TIP3     H1       HT       0.417000       1.00800           0
     19192 TIP3     606      TIP3     H2       HT       0.417000       1.00800           0
     19193 TIP3     607      TIP3     OH2      OT      -0.834000       15.9994           0
     19194 TIP3     607      TIP3     H1       HT       0.417000       1.00800           0
     19195 TIP3     607      TIP3     H2       HT       0.417000       1.00800           0
     19196 TIP3     608      TIP3     OH2      OT      -0.834000       15.9994           0
     19197 TIP3     608      TIP3     H1       HT       0.417000       1.00800           0
     19198 TIP3     608      TIP3     H2       HT       0.417000       1.00800           0
     19199 TIP3     609      TIP3     OH2      OT      -0.834000       15.9994           0
     19200 TIP3     609      TIP3     H1       HT       0.417000       1.00800           0
     19201 TIP3     609      TIP3     H2       HT       0.417000       1.00800           0
     19202 TIP3     610      TIP3     OH2      OT      -0.834000       15.9994           0
     19203 TIP3     610      TIP3     H1       HT       0.417000       1.00800           0
     19204 TIP3     610      TIP3     H2       HT       0.417000       1.00800           0
     19205 TIP3     611      TIP3     OH2      OT      -0.834000       15.9994           0
     19206 TIP3     611      TIP3     H1       HT       0.417000       1.00800           0
     19207 TIP3     611      TIP3     H2       HT       0.417000       1.00800           0
     19208 TIP3     612      TIP3     OH2      OT      -0.834000       15.9994           0
     19209 TIP3     612      TIP3     H1       HT       0.417000       1.00800           0
     19210 TIP3     612      TIP3     H2       HT       0.417000       1.00800           0
     19211 TIP3     613      TIP3     OH2      OT      -0.834000       15.9994           0
     19212 TIP3     613      TIP3     H1       HT       0.417000       1.00800           0
     19213 TIP3     613      TIP3     H2       HT       0.417000       1.00800           0
     19214 TIP3     614      TIP3     OH2      OT      -0.834000       15.9994           0
     19215 TIP3     614      TIP3     H1       HT       0.417000       1.00800           0
     19216 TIP3     614      TIP3     H2       HT       0.417000       1.00800           0
     19217 TIP3     615      TIP3     OH2      OT      -0.834000       15.9994           0
     19218 TIP3     615      TIP3     H1       HT       0.417000       1.00800           0
     19219 TIP3     615      TIP3     H2       HT       0.417000       1.00800           0
     19220 TIP3     616      TIP3     OH2      OT      -0.834000       15.9994           0
     19221 TIP3     616      TIP3     H1       HT       0.417000       1.00800           0
     19222 TIP3     616      TIP3     H2       HT       0.417000       1.00800           0
     19223 TIP3     617      TIP3     OH2      OT      -0.834000       15.9994           0
     19224 TIP3     617      TIP3     H1       HT       0.417000       1.00800           0
     19225 TIP3     617      TIP3     H2       HT       0.417000       1.00800           0
     19226 TIP3     618      TIP3     OH2      OT      -0.834000       15.9994           0
     19227 TIP3     618      TIP3     H1       HT       0.417000       1.00800           0
     19228 TIP3     618      TIP3     H2       HT       0.417000       1.00800           0
     19229 TIP3     619      TIP3     OH2      OT      -0.834000       15.9994           0
     19230 TIP3     619      TIP3     H1       HT       0.417000       1.00800           0
     19231 TIP3     619      TIP3     H2       HT       0.417000       1.00800           0
     19232 TIP3     620      TIP3     OH2      OT      -0.834000       15.9994           0
     19233 TIP3     620      TIP3     H1       HT       0.417000       1.00800           0
     19234 TIP3     620      TIP3     H2       HT       0.417000       1.00800           0
     19235 TIP3     621      TIP3     OH2      OT      -0.834000       15.9994           0
     19236 TIP3     621      TIP3     H1       HT       0.417000       1.00800           0
     19237 TIP3     621      TIP3     H2       HT       0.417000       1.00800           0
     19238 TIP3     622      TIP3     OH2      OT      -0.834000       15.9994           0
     19239 TIP3     622      TIP3     H1       HT       0.417000       1.00800           0
     19240 TIP3     622      TIP3     H2       HT       0.417000       1.00800           0
     19241 TIP3     623      TIP3     OH2      OT      -0.834000       15.9994           0
     19242 TIP3     623      TIP3     H1       HT       0.417000       1.00800           0
     19243 TIP3     623      TIP3     H2       HT       0.417000       1.00800           0
     19244 TIP3     624      TIP3     OH2      OT      -0.834000       15.9994           0
     19245 TIP3     624      TIP3     H1       HT       0.417000       1.00800           0
     19246 TIP3     624      TIP3     H2       HT       0.417000       1.00800           0
     19247 TIP3     625      TIP3     OH2      OT      -0.834000       15.9994           0
     19248 TIP3     625      TIP3     H1       HT       0.417000       1.00800           0
     19249 TIP3     625      TIP3     H2       HT       0.417000       1.00800           0
     19250 TIP3     626      TIP3     OH2      OT      -0.834000       15.9994           0
     19251 TIP3     626      TIP3     H1       HT       0.417000       1.00800           0
     19252 TIP3     626      TIP3     H2       HT       0.417000       1.00800           0
     19253 TIP3     627      TIP3     OH2      OT      -0.834000       15.9994           0
     19254 TIP3     627      TIP3     H1       HT       0.417000       1.00800           0
     19255 TIP3     627      TIP3     H2       HT       0.417000       1.00800           0
     19256 TIP3     628      TIP3     OH2      OT      -0.834000       15.9994           0
     19257 TIP3     628      TIP3     H1       HT       0.417000       1.00800           0
     19258 TIP3     628      TIP3     H2       HT       0.417000       1.00800           0
     19259 TIP3     629      TIP3     OH2      OT      -0.834000       15.9994           0
     19260 TIP3     629      TIP3     H1       HT       0.417000       1.00800           0
     19261 TIP3     629      TIP3     H2       HT       0.417000       1.00800           0
     19262 TIP3     630      TIP3     OH2      OT      -0.834000       15.9994           0
     19263 TIP3     630      TIP3     H1       HT       0.417000       1.00800           0
     19264 TIP3     630      TIP3     H2       HT       0.417000       1.00800           0
     19265 TIP3     631      TIP3     OH2      OT      -0.834000       15.9994           0
     19266 TIP3     631      TIP3     H1       HT       0.417000       1.00800           0
     19267 TIP3     631      TIP3     H2       HT       0.417000       1.00800           0
     19268 TIP3     632      TIP3     OH2      OT      -0.834000       15.9994           0
     19269 TIP3     632      TIP3     H1       HT       0.417000       1.00800           0
     19270 TIP3     632      TIP3     H2       HT       0.417000       1.00800           0
     19271 TIP3     633      TIP3     OH2      OT      -0.834000       15.9994           0
     19272 TIP3     633      TIP3     H1       HT       0.417000       1.00800           0
     19273 TIP3     633      TIP3     H2       HT       0.417000       1.00800           0
     19274 TIP3     634      TIP3     OH2      OT      -0.834000       15.9994           0
     19275 TIP3     634      TIP3     H1       HT       0.417000       1.00800           0
     19276 TIP3     634      TIP3     H2       HT       0.417000       1.00800           0
     19277 TIP3     635      TIP3     OH2      OT      -0.834000       15.9994           0
     19278 TIP3     635      TIP3     H1       HT       0.417000       1.00800           0
     19279 TIP3     635      TIP3     H2       HT       0.417000       1.00800           0
     19280 TIP3     636      TIP3     OH2      OT      -0.834000       15.9994           0
     19281 TIP3     636      TIP3     H1       HT       0.417000       1.00800           0
     19282 TIP3     636      TIP3     H2       HT       0.417000       1.00800           0
     19283 TIP3     637      TIP3     OH2      OT      -0.834000       15.9994           0
     19284 TIP3     637      TIP3     H1       HT       0.417000       1.00800           0
     19285 TIP3     637      TIP3     H2       HT       0.417000       1.00800           0
     19286 TIP3     638      TIP3     OH2      OT      -0.834000       15.9994           0
     19287 TIP3     638      TIP3     H1       HT       0.417000       1.00800           0
     19288 TIP3     638      TIP3     H2       HT       0.417000       1.00800           0
     19289 TIP3     639      TIP3     OH2      OT      -0.834000       15.9994           0
     19290 TIP3     639      TIP3     H1       HT       0.417000       1.00800           0
     19291 TIP3     639      TIP3     H2       HT       0.417000       1.00800           0
     19292 TIP3     640      TIP3     OH2      OT      -0.834000       15.9994           0
     19293 TIP3     640      TIP3     H1       HT       0.417000       1.00800           0
     19294 TIP3     640      TIP3     H2       HT       0.417000       1.00800           0
     19295 TIP3     641      TIP3     OH2      OT      -0.834000       15.9994           0
     19296 TIP3     641      TIP3     H1       HT       0.417000       1.00800           0
     19297 TIP3     641      TIP3     H2       HT       0.417000       1.00800           0
     19298 TIP3     642      TIP3     OH2      OT      -0.834000       15.9994           0
     19299 TIP3     642      TIP3     H1       HT       0.417000       1.00800           0
     19300 TIP3     642      TIP3     H2       HT       0.417000       1.00800           0
     19301 TIP3     643      TIP3     OH2      OT      -0.834000       15.9994           0
     19302 TIP3     643      TIP3     H1       HT       0.417000       1.00800           0
     19303 TIP3     643      TIP3     H2       HT       0.417000       1.00800           0
     19304 TIP3     644      TIP3     OH2      OT      -0.834000       15.9994           0
     19305 TIP3     644      TIP3     H1       HT       0.417000       1.00800           0
     19306 TIP3     644      TIP3     H2       HT       0.417000       1.00800           0
     19307 TIP3     645      TIP3     OH2      OT      -0.834000       15.9994           0
     19308 TIP3     645      TIP3     H1       HT       0.417000       1.00800           0
     19309 TIP3     645      TIP3     H2       HT       0.417000       1.00800           0
     19310 TIP3     646      TIP3     OH2      OT      -0.834000       15.9994           0
     19311 TIP3     646      TIP3     H1       HT       0.417000       1.00800           0
     19312 TIP3     646      TIP3     H2       HT       0.417000       1.00800           0
     19313 TIP3     647      TIP3     OH2      OT      -0.834000       15.9994           0
     19314 TIP3     647      TIP3     H1       HT       0.417000       1.00800           0
     19315 TIP3     647      TIP3     H2       HT       0.417000       1.00800           0
     19316 TIP3     648      TIP3     OH2      OT      -0.834000       15.9994           0
     19317 TIP3     648      TIP3     H1       HT       0.417000       1.00800           0
     19318 TIP3     648      TIP3     H2       HT       0.417000       1.00800           0
     19319 TIP3     649      TIP3     OH2      OT      -0.834000       15.9994           0
     19320 TIP3     649      TIP3     H1       HT       0.417000       1.00800           0
     19321 TIP3     649      TIP3     H2       HT       0.417000       1.00800           0
     19322 TIP3     650      TIP3     OH2      OT      -0.834000       15.9994           0
     19323 TIP3     650      TIP3     H1       HT       0.417000       1.00800           0
     19324 TIP3     650      TIP3     H2       HT       0.417000       1.00800           0
     19325 TIP3     651      TIP3     OH2      OT      -0.834000       15.9994           0
     19326 TIP3     651      TIP3     H1       HT       0.417000       1.00800           0
     19327 TIP3     651      TIP3     H2       HT       0.417000       1.00800           0
     19328 TIP3     652      TIP3     OH2      OT      -0.834000       15.9994           0
     19329 TIP3     652      TIP3     H1       HT       0.417000       1.00800           0
     19330 TIP3     652      TIP3     H2       HT       0.417000       1.00800           0
     19331 TIP3     653      TIP3     OH2      OT      -0.834000       15.9994           0
     19332 TIP3     653      TIP3     H1       HT       0.417000       1.00800           0
     19333 TIP3     653      TIP3     H2       HT       0.417000       1.00800           0
     19334 TIP3     654      TIP3     OH2      OT      -0.834000       15.9994           0
     19335 TIP3     654      TIP3     H1       HT       0.417000       1.00800           0
     19336 TIP3     654      TIP3     H2       HT       0.417000       1.00800           0
     19337 TIP3     655      TIP3     OH2      OT      -0.834000       15.9994           0
     19338 TIP3     655      TIP3     H1       HT       0.417000       1.00800           0
     19339 TIP3     655      TIP3     H2       HT       0.417000       1.00800           0
     19340 TIP3     656      TIP3     OH2      OT      -0.834000       15.9994           0
     19341 TIP3     656      TIP3     H1       HT       0.417000       1.00800           0
     19342 TIP3     656      TIP3     H2       HT       0.417000       1.00800           0
     19343 TIP3     657      TIP3     OH2      OT      -0.834000       15.9994           0
     19344 TIP3     657      TIP3     H1       HT       0.417000       1.00800           0
     19345 TIP3     657      TIP3     H2       HT       0.417000       1.00800           0
     19346 TIP3     658      TIP3     OH2      OT      -0.834000       15.9994           0
     19347 TIP3     658      TIP3     H1       HT       0.417000       1.00800           0
     19348 TIP3     658      TIP3     H2       HT       0.417000       1.00800           0
     19349 TIP3     659      TIP3     OH2      OT      -0.834000       15.9994           0
     19350 TIP3     659      TIP3     H1       HT       0.417000       1.00800           0
     19351 TIP3     659      TIP3     H2       HT       0.417000       1.00800           0
     19352 TIP3     660      TIP3     OH2      OT      -0.834000       15.9994           0
     19353 TIP3     660      TIP3     H1       HT       0.417000       1.00800           0
     19354 TIP3     660      TIP3     H2       HT       0.417000       1.00800           0
     19355 TIP3     661      TIP3     OH2      OT      -0.834000       15.9994           0
     19356 TIP3     661      TIP3     H1       HT       0.417000       1.00800           0
     19357 TIP3     661      TIP3     H2       HT       0.417000       1.00800           0
     19358 TIP3     662      TIP3     OH2      OT      -0.834000       15.9994           0
     19359 TIP3     662      TIP3     H1       HT       0.417000       1.00800           0
     19360 TIP3     662      TIP3     H2       HT       0.417000       1.00800           0
     19361 TIP3     663      TIP3     OH2      OT      -0.834000       15.9994           0
     19362 TIP3     663      TIP3     H1       HT       0.417000       1.00800           0
     19363 TIP3     663      TIP3     H2       HT       0.417000       1.00800           0
     19364 TIP3     664      TIP3     OH2      OT      -0.834000       15.9994           0
     19365 TIP3     664      TIP3     H1       HT       0.417000       1.00800           0
     19366 TIP3     664      TIP3     H2       HT       0.417000       1.00800           0
     19367 TIP3     665      TIP3     OH2      OT      -0.834000       15.9994           0
     19368 TIP3     665      TIP3     H1       HT       0.417000       1.00800           0
     19369 TIP3     665      TIP3     H2       HT       0.417000       1.00800           0
     19370 TIP3     666      TIP3     OH2      OT      -0.834000       15.9994           0
     19371 TIP3     666      TIP3     H1       HT       0.417000       1.00800           0
     19372 TIP3     666      TIP3     H2       HT       0.417000       1.00800           0
     19373 TIP3     667      TIP3     OH2      OT      -0.834000       15.9994           0
     19374 TIP3     667      TIP3     H1       HT       0.417000       1.00800           0
     19375 TIP3     667      TIP3     H2       HT       0.417000       1.00800           0
     19376 TIP3     668      TIP3     OH2      OT      -0.834000       15.9994           0
     19377 TIP3     668      TIP3     H1       HT       0.417000       1.00800           0
     19378 TIP3     668      TIP3     H2       HT       0.417000       1.00800           0
     19379 TIP3     669      TIP3     OH2      OT      -0.834000       15.9994           0
     19380 TIP3     669      TIP3     H1       HT       0.417000       1.00800           0
     19381 TIP3     669      TIP3     H2       HT       0.417000       1.00800           0
     19382 TIP3     670      TIP3     OH2      OT      -0.834000       15.9994           0
     19383 TIP3     670      TIP3     H1       HT       0.417000       1.00800           0
     19384 TIP3     670      TIP3     H2       HT       0.417000       1.00800           0
     19385 TIP3     671      TIP3     OH2      OT      -0.834000       15.9994           0
     19386 TIP3     671      TIP3     H1       HT       0.417000       1.00800           0
     19387 TIP3     671      TIP3     H2       HT       0.417000       1.00800           0
     19388 TIP3     672      TIP3     OH2      OT      -0.834000       15.9994           0
     19389 TIP3     672      TIP3     H1       HT       0.417000       1.00800           0
     19390 TIP3     672      TIP3     H2       HT       0.417000       1.00800           0
     19391 TIP3     673      TIP3     OH2      OT      -0.834000       15.9994           0
     19392 TIP3     673      TIP3     H1       HT       0.417000       1.00800           0
     19393 TIP3     673      TIP3     H2       HT       0.417000       1.00800           0
     19394 TIP3     674      TIP3     OH2      OT      -0.834000       15.9994           0
     19395 TIP3     674      TIP3     H1       HT       0.417000       1.00800           0
     19396 TIP3     674      TIP3     H2       HT       0.417000       1.00800           0
     19397 TIP3     675      TIP3     OH2      OT      -0.834000       15.9994           0
     19398 TIP3     675      TIP3     H1       HT       0.417000       1.00800           0
     19399 TIP3     675      TIP3     H2       HT       0.417000       1.00800           0
     19400 TIP3     676      TIP3     OH2      OT      -0.834000       15.9994           0
     19401 TIP3     676      TIP3     H1       HT       0.417000       1.00800           0
     19402 TIP3     676      TIP3     H2       HT       0.417000       1.00800           0
     19403 TIP3     677      TIP3     OH2      OT      -0.834000       15.9994           0
     19404 TIP3     677      TIP3     H1       HT       0.417000       1.00800           0
     19405 TIP3     677      TIP3     H2       HT       0.417000       1.00800           0
     19406 TIP3     678      TIP3     OH2      OT      -0.834000       15.9994           0
     19407 TIP3     678      TIP3     H1       HT       0.417000       1.00800           0
     19408 TIP3     678      TIP3     H2       HT       0.417000       1.00800           0
     19409 TIP3     679      TIP3     OH2      OT      -0.834000       15.9994           0
     19410 TIP3     679      TIP3     H1       HT       0.417000       1.00800           0
     19411 TIP3     679      TIP3     H2       HT       0.417000       1.00800           0
     19412 TIP3     680      TIP3     OH2      OT      -0.834000       15.9994           0
     19413 TIP3     680      TIP3     H1       HT       0.417000       1.00800           0
     19414 TIP3     680      TIP3     H2       HT       0.417000       1.00800           0
     19415 TIP3     681      TIP3     OH2      OT      -0.834000       15.9994           0
     19416 TIP3     681      TIP3     H1       HT       0.417000       1.00800           0
     19417 TIP3     681      TIP3     H2       HT       0.417000       1.00800           0
     19418 TIP3     682      TIP3     OH2      OT      -0.834000       15.9994           0
     19419 TIP3     682      TIP3     H1       HT       0.417000       1.00800           0
     19420 TIP3     682      TIP3     H2       HT       0.417000       1.00800           0
     19421 TIP3     683      TIP3     OH2      OT      -0.834000       15.9994           0
     19422 TIP3     683      TIP3     H1       HT       0.417000       1.00800           0
     19423 TIP3     683      TIP3     H2       HT       0.417000       1.00800           0
     19424 TIP3     684      TIP3     OH2      OT      -0.834000       15.9994           0
     19425 TIP3     684      TIP3     H1       HT       0.417000       1.00800           0
     19426 TIP3     684      TIP3     H2       HT       0.417000       1.00800           0
     19427 TIP3     685      TIP3     OH2      OT      -0.834000       15.9994           0
     19428 TIP3     685      TIP3     H1       HT       0.417000       1.00800           0
     19429 TIP3     685      TIP3     H2       HT       0.417000       1.00800           0
     19430 TIP3     686      TIP3     OH2      OT      -0.834000       15.9994           0
     19431 TIP3     686      TIP3     H1       HT       0.417000       1.00800           0
     19432 TIP3     686      TIP3     H2       HT       0.417000       1.00800           0
     19433 TIP3     687      TIP3     OH2      OT      -0.834000       15.9994           0
     19434 TIP3     687      TIP3     H1       HT       0.417000       1.00800           0
     19435 TIP3     687      TIP3     H2       HT       0.417000       1.00800           0
     19436 TIP3     688      TIP3     OH2      OT      -0.834000       15.9994           0
     19437 TIP3     688      TIP3     H1       HT       0.417000       1.00800           0
     19438 TIP3     688      TIP3     H2       HT       0.417000       1.00800           0
     19439 TIP3     689      TIP3     OH2      OT      -0.834000       15.9994           0
     19440 TIP3     689      TIP3     H1       HT       0.417000       1.00800           0
     19441 TIP3     689      TIP3     H2       HT       0.417000       1.00800           0
     19442 TIP3     690      TIP3     OH2      OT      -0.834000       15.9994           0
     19443 TIP3     690      TIP3     H1       HT       0.417000       1.00800           0
     19444 TIP3     690      TIP3     H2       HT       0.417000       1.00800           0
     19445 TIP3     691      TIP3     OH2      OT      -0.834000       15.9994           0
     19446 TIP3     691      TIP3     H1       HT       0.417000       1.00800           0
     19447 TIP3     691      TIP3     H2       HT       0.417000       1.00800           0
     19448 TIP3     692      TIP3     OH2      OT      -0.834000       15.9994           0
     19449 TIP3     692      TIP3     H1       HT       0.417000       1.00800           0
     19450 TIP3     692      TIP3     H2       HT       0.417000       1.00800           0
     19451 TIP3     693      TIP3     OH2      OT      -0.834000       15.9994           0
     19452 TIP3     693      TIP3     H1       HT       0.417000       1.00800           0
     19453 TIP3     693      TIP3     H2       HT       0.417000       1.00800           0
     19454 TIP3     694      TIP3     OH2      OT      -0.834000       15.9994           0
     19455 TIP3     694      TIP3     H1       HT       0.417000       1.00800           0
     19456 TIP3     694      TIP3     H2       HT       0.417000       1.00800           0
     19457 TIP3     695      TIP3     OH2      OT      -0.834000       15.9994           0
     19458 TIP3     695      TIP3     H1       HT       0.417000       1.00800           0
     19459 TIP3     695      TIP3     H2       HT       0.417000       1.00800           0
     19460 TIP3     696      TIP3     OH2      OT      -0.834000       15.9994           0
     19461 TIP3     696      TIP3     H1       HT       0.417000       1.00800           0
     19462 TIP3     696      TIP3     H2       HT       0.417000       1.00800           0
     19463 TIP3     697      TIP3     OH2      OT      -0.834000       15.9994           0
     19464 TIP3     697      TIP3     H1       HT       0.417000       1.00800           0
     19465 TIP3     697      TIP3     H2       HT       0.417000       1.00800           0
     19466 TIP3     698      TIP3     OH2      OT      -0.834000       15.9994           0
     19467 TIP3     698      TIP3     H1       HT       0.417000       1.00800           0
     19468 TIP3     698      TIP3     H2       HT       0.417000       1.00800           0
     19469 TIP3     699      TIP3     OH2      OT      -0.834000       15.9994           0
     19470 TIP3     699      TIP3     H1       HT       0.417000       1.00800           0
     19471 TIP3     699      TIP3     H2       HT       0.417000       1.00800           0
     19472 TIP3     700      TIP3     OH2      OT      -0.834000       15.9994           0
     19473 TIP3     700      TIP3     H1       HT       0.417000       1.00800           0
     19474 TIP3     700      TIP3     H2       HT       0.417000       1.00800           0
     19475 TIP3     701      TIP3     OH2      OT      -0.834000       15.9994           0
     19476 TIP3     701      TIP3     H1       HT       0.417000       1.00800           0
     19477 TIP3     701      TIP3     H2       HT       0.417000       1.00800           0
     19478 TIP3     702      TIP3     OH2      OT      -0.834000       15.9994           0
     19479 TIP3     702      TIP3     H1       HT       0.417000       1.00800           0
     19480 TIP3     702      TIP3     H2       HT       0.417000       1.00800           0
     19481 TIP3     703      TIP3     OH2      OT      -0.834000       15.9994           0
     19482 TIP3     703      TIP3     H1       HT       0.417000       1.00800           0
     19483 TIP3     703      TIP3     H2       HT       0.417000       1.00800           0
     19484 TIP3     704      TIP3     OH2      OT      -0.834000       15.9994           0
     19485 TIP3     704      TIP3     H1       HT       0.417000       1.00800           0
     19486 TIP3     704      TIP3     H2       HT       0.417000       1.00800           0
     19487 TIP3     705      TIP3     OH2      OT      -0.834000       15.9994           0
     19488 TIP3     705      TIP3     H1       HT       0.417000       1.00800           0
     19489 TIP3     705      TIP3     H2       HT       0.417000       1.00800           0
     19490 TIP3     706      TIP3     OH2      OT      -0.834000       15.9994           0
     19491 TIP3     706      TIP3     H1       HT       0.417000       1.00800           0
     19492 TIP3     706      TIP3     H2       HT       0.417000       1.00800           0
     19493 TIP3     707      TIP3     OH2      OT      -0.834000       15.9994           0
     19494 TIP3     707      TIP3     H1       HT       0.417000       1.00800           0
     19495 TIP3     707      TIP3     H2       HT       0.417000       1.00800           0
     19496 TIP3     708      TIP3     OH2      OT      -0.834000       15.9994           0
     19497 TIP3     708      TIP3     H1       HT       0.417000       1.00800           0
     19498 TIP3     708      TIP3     H2       HT       0.417000       1.00800           0
     19499 TIP3     709      TIP3     OH2      OT      -0.834000       15.9994           0
     19500 TIP3     709      TIP3     H1       HT       0.417000       1.00800           0
     19501 TIP3     709      TIP3     H2       HT       0.417000       1.00800           0
     19502 TIP3     710      TIP3     OH2      OT      -0.834000       15.9994           0
     19503 TIP3     710      TIP3     H1       HT       0.417000       1.00800           0
     19504 TIP3     710      TIP3     H2       HT       0.417000       1.00800           0
     19505 TIP3     711      TIP3     OH2      OT      -0.834000       15.9994           0
     19506 TIP3     711      TIP3     H1       HT       0.417000       1.00800           0
     19507 TIP3     711      TIP3     H2       HT       0.417000       1.00800           0
     19508 TIP3     712      TIP3     OH2      OT      -0.834000       15.9994           0
     19509 TIP3     712      TIP3     H1       HT       0.417000       1.00800           0
     19510 TIP3     712      TIP3     H2       HT       0.417000       1.00800           0
     19511 TIP3     713      TIP3     OH2      OT      -0.834000       15.9994           0
     19512 TIP3     713      TIP3     H1       HT       0.417000       1.00800           0
     19513 TIP3     713      TIP3     H2       HT       0.417000       1.00800           0
     19514 TIP3     714      TIP3     OH2      OT      -0.834000       15.9994           0
     19515 TIP3     714      TIP3     H1       HT       0.417000       1.00800           0
     19516 TIP3     714      TIP3     H2       HT       0.417000       1.00800           0
     19517 TIP3     715      TIP3     OH2      OT      -0.834000       15.9994           0
     19518 TIP3     715      TIP3     H1       HT       0.417000       1.00800           0
     19519 TIP3     715      TIP3     H2       HT       0.417000       1.00800           0
     19520 TIP3     716      TIP3     OH2      OT      -0.834000       15.9994           0
     19521 TIP3     716      TIP3     H1       HT       0.417000       1.00800           0
     19522 TIP3     716      TIP3     H2       HT       0.417000       1.00800           0
     19523 TIP3     717      TIP3     OH2      OT      -0.834000       15.9994           0
     19524 TIP3     717      TIP3     H1       HT       0.417000       1.00800           0
     19525 TIP3     717      TIP3     H2       HT       0.417000       1.00800           0
     19526 TIP3     718      TIP3     OH2      OT      -0.834000       15.9994           0
     19527 TIP3     718      TIP3     H1       HT       0.417000       1.00800           0
     19528 TIP3     718      TIP3     H2       HT       0.417000       1.00800           0
     19529 TIP3     719      TIP3     OH2      OT      -0.834000       15.9994           0
     19530 TIP3     719      TIP3     H1       HT       0.417000       1.00800           0
     19531 TIP3     719      TIP3     H2       HT       0.417000       1.00800           0
     19532 TIP3     720      TIP3     OH2      OT      -0.834000       15.9994           0
     19533 TIP3     720      TIP3     H1       HT       0.417000       1.00800           0
     19534 TIP3     720      TIP3     H2       HT       0.417000       1.00800           0
     19535 TIP3     721      TIP3     OH2      OT      -0.834000       15.9994           0
     19536 TIP3     721      TIP3     H1       HT       0.417000       1.00800           0
     19537 TIP3     721      TIP3     H2       HT       0.417000       1.00800           0
     19538 TIP3     722      TIP3     OH2      OT      -0.834000       15.9994           0
     19539 TIP3     722      TIP3     H1       HT       0.417000       1.00800           0
     19540 TIP3     722      TIP3     H2       HT       0.417000       1.00800           0
     19541 TIP3     723      TIP3     OH2      OT      -0.834000       15.9994           0
     19542 TIP3     723      TIP3     H1       HT       0.417000       1.00800           0
     19543 TIP3     723      TIP3     H2       HT       0.417000       1.00800           0
     19544 TIP3     724      TIP3     OH2      OT      -0.834000       15.9994           0
     19545 TIP3     724      TIP3     H1       HT       0.417000       1.00800           0
     19546 TIP3     724      TIP3     H2       HT       0.417000       1.00800           0
     19547 TIP3     725      TIP3     OH2      OT      -0.834000       15.9994           0
     19548 TIP3     725      TIP3     H1       HT       0.417000       1.00800           0
     19549 TIP3     725      TIP3     H2       HT       0.417000       1.00800           0
     19550 TIP3     726      TIP3     OH2      OT      -0.834000       15.9994           0
     19551 TIP3     726      TIP3     H1       HT       0.417000       1.00800           0
     19552 TIP3     726      TIP3     H2       HT       0.417000       1.00800           0
     19553 TIP3     727      TIP3     OH2      OT      -0.834000       15.9994           0
     19554 TIP3     727      TIP3     H1       HT       0.417000       1.00800           0
     19555 TIP3     727      TIP3     H2       HT       0.417000       1.00800           0
     19556 TIP3     728      TIP3     OH2      OT      -0.834000       15.9994           0
     19557 TIP3     728      TIP3     H1       HT       0.417000       1.00800           0
     19558 TIP3     728      TIP3     H2       HT       0.417000       1.00800           0
     19559 TIP3     729      TIP3     OH2      OT      -0.834000       15.9994           0
     19560 TIP3     729      TIP3     H1       HT       0.417000       1.00800           0
     19561 TIP3     729      TIP3     H2       HT       0.417000       1.00800           0
     19562 TIP3     730      TIP3     OH2      OT      -0.834000       15.9994           0
     19563 TIP3     730      TIP3     H1       HT       0.417000       1.00800           0
     19564 TIP3     730      TIP3     H2       HT       0.417000       1.00800           0
     19565 TIP3     731      TIP3     OH2      OT      -0.834000       15.9994           0
     19566 TIP3     731      TIP3     H1       HT       0.417000       1.00800           0
     19567 TIP3     731      TIP3     H2       HT       0.417000       1.00800           0
     19568 TIP3     732      TIP3     OH2      OT      -0.834000       15.9994           0
     19569 TIP3     732      TIP3     H1       HT       0.417000       1.00800           0
     19570 TIP3     732      TIP3     H2       HT       0.417000       1.00800           0
     19571 TIP3     733      TIP3     OH2      OT      -0.834000       15.9994           0
     19572 TIP3     733      TIP3     H1       HT       0.417000       1.00800           0
     19573 TIP3     733      TIP3     H2       HT       0.417000       1.00800           0
     19574 TIP3     734      TIP3     OH2      OT      -0.834000       15.9994           0
     19575 TIP3     734      TIP3     H1       HT       0.417000       1.00800           0
     19576 TIP3     734      TIP3     H2       HT       0.417000       1.00800           0
     19577 TIP3     735      TIP3     OH2      OT      -0.834000       15.9994           0
     19578 TIP3     735      TIP3     H1       HT       0.417000       1.00800           0
     19579 TIP3     735      TIP3     H2       HT       0.417000       1.00800           0
     19580 TIP3     736      TIP3     OH2      OT      -0.834000       15.9994           0
     19581 TIP3     736      TIP3     H1       HT       0.417000       1.00800           0
     19582 TIP3     736      TIP3     H2       HT       0.417000       1.00800           0
     19583 TIP3     737      TIP3     OH2      OT      -0.834000       15.9994           0
     19584 TIP3     737      TIP3     H1       HT       0.417000       1.00800           0
     19585 TIP3     737      TIP3     H2       HT       0.417000       1.00800           0
     19586 TIP3     738      TIP3     OH2      OT      -0.834000       15.9994           0
     19587 TIP3     738      TIP3     H1       HT       0.417000       1.00800           0
     19588 TIP3     738      TIP3     H2       HT       0.417000       1.00800           0
     19589 TIP3     739      TIP3     OH2      OT      -0.834000       15.9994           0
     19590 TIP3     739      TIP3     H1       HT       0.417000       1.00800           0
     19591 TIP3     739      TIP3     H2       HT       0.417000       1.00800           0
     19592 TIP3     740      TIP3     OH2      OT      -0.834000       15.9994           0
     19593 TIP3     740      TIP3     H1       HT       0.417000       1.00800           0
     19594 TIP3     740      TIP3     H2       HT       0.417000       1.00800           0
     19595 TIP3     741      TIP3     OH2      OT      -0.834000       15.9994           0
     19596 TIP3     741      TIP3     H1       HT       0.417000       1.00800           0
     19597 TIP3     741      TIP3     H2       HT       0.417000       1.00800           0
     19598 TIP3     742      TIP3     OH2      OT      -0.834000       15.9994           0
     19599 TIP3     742      TIP3     H1       HT       0.417000       1.00800           0
     19600 TIP3     742      TIP3     H2       HT       0.417000       1.00800           0
     19601 TIP3     743      TIP3     OH2      OT      -0.834000       15.9994           0
     19602 TIP3     743      TIP3     H1       HT       0.417000       1.00800           0
     19603 TIP3     743      TIP3     H2       HT       0.417000       1.00800           0
     19604 TIP3     744      TIP3     OH2      OT      -0.834000       15.9994           0
     19605 TIP3     744      TIP3     H1       HT       0.417000       1.00800           0
     19606 TIP3     744      TIP3     H2       HT       0.417000       1.00800           0
     19607 TIP3     745      TIP3     OH2      OT      -0.834000       15.9994           0
     19608 TIP3     745      TIP3     H1       HT       0.417000       1.00800           0
     19609 TIP3     745      TIP3     H2       HT       0.417000       1.00800           0
     19610 TIP3     746      TIP3     OH2      OT      -0.834000       15.9994           0
     19611 TIP3     746      TIP3     H1       HT       0.417000       1.00800           0
     19612 TIP3     746      TIP3     H2       HT       0.417000       1.00800           0
     19613 TIP3     747      TIP3     OH2      OT      -0.834000       15.9994           0
     19614 TIP3     747      TIP3     H1       HT       0.417000       1.00800           0
     19615 TIP3     747      TIP3     H2       HT       0.417000       1.00800           0
     19616 TIP3     748      TIP3     OH2      OT      -0.834000       15.9994           0
     19617 TIP3     748      TIP3     H1       HT       0.417000       1.00800           0
     19618 TIP3     748      TIP3     H2       HT       0.417000       1.00800           0
     19619 TIP3     749      TIP3     OH2      OT      -0.834000       15.9994           0
     19620 TIP3     749      TIP3     H1       HT       0.417000       1.00800           0
     19621 TIP3     749      TIP3     H2       HT       0.417000       1.00800           0
     19622 TIP3     750      TIP3     OH2      OT      -0.834000       15.9994           0
     19623 TIP3     750      TIP3     H1       HT       0.417000       1.00800           0
     19624 TIP3     750      TIP3     H2       HT       0.417000       1.00800           0
     19625 TIP3     751      TIP3     OH2      OT      -0.834000       15.9994           0
     19626 TIP3     751      TIP3     H1       HT       0.417000       1.00800           0
     19627 TIP3     751      TIP3     H2       HT       0.417000       1.00800           0
     19628 TIP3     752      TIP3     OH2      OT      -0.834000       15.9994           0
     19629 TIP3     752      TIP3     H1       HT       0.417000       1.00800           0
     19630 TIP3     752      TIP3     H2       HT       0.417000       1.00800           0
     19631 TIP3     753      TIP3     OH2      OT      -0.834000       15.9994           0
     19632 TIP3     753      TIP3     H1       HT       0.417000       1.00800           0
     19633 TIP3     753      TIP3     H2       HT       0.417000       1.00800           0
     19634 TIP3     754      TIP3     OH2      OT      -0.834000       15.9994           0
     19635 TIP3     754      TIP3     H1       HT       0.417000       1.00800           0
     19636 TIP3     754      TIP3     H2       HT       0.417000       1.00800           0
     19637 TIP3     755      TIP3     OH2      OT      -0.834000       15.9994           0
     19638 TIP3     755      TIP3     H1       HT       0.417000       1.00800           0
     19639 TIP3     755      TIP3     H2       HT       0.417000       1.00800           0
     19640 TIP3     756      TIP3     OH2      OT      -0.834000       15.9994           0
     19641 TIP3     756      TIP3     H1       HT       0.417000       1.00800           0
     19642 TIP3     756      TIP3     H2       HT       0.417000       1.00800           0
     19643 TIP3     757      TIP3     OH2      OT      -0.834000       15.9994           0
     19644 TIP3     757      TIP3     H1       HT       0.417000       1.00800           0
     19645 TIP3     757      TIP3     H2       HT       0.417000       1.00800           0
     19646 TIP3     758      TIP3     OH2      OT      -0.834000       15.9994           0
     19647 TIP3     758      TIP3     H1       HT       0.417000       1.00800           0
     19648 TIP3     758      TIP3     H2       HT       0.417000       1.00800           0
     19649 TIP3     759      TIP3     OH2      OT      -0.834000       15.9994           0
     19650 TIP3     759      TIP3     H1       HT       0.417000       1.00800           0
     19651 TIP3     759      TIP3     H2       HT       0.417000       1.00800           0
     19652 TIP3     760      TIP3     OH2      OT      -0.834000       15.9994           0
     19653 TIP3     760      TIP3     H1       HT       0.417000       1.00800           0
     19654 TIP3     760      TIP3     H2       HT       0.417000       1.00800           0
     19655 TIP3     761      TIP3     OH2      OT      -0.834000       15.9994           0
     19656 TIP3     761      TIP3     H1       HT       0.417000       1.00800           0
     19657 TIP3     761      TIP3     H2       HT       0.417000       1.00800           0
     19658 TIP3     762      TIP3     OH2      OT      -0.834000       15.9994           0
     19659 TIP3     762      TIP3     H1       HT       0.417000       1.00800           0
     19660 TIP3     762      TIP3     H2       HT       0.417000       1.00800           0
     19661 TIP3     763      TIP3     OH2      OT      -0.834000       15.9994           0
     19662 TIP3     763      TIP3     H1       HT       0.417000       1.00800           0
     19663 TIP3     763      TIP3     H2       HT       0.417000       1.00800           0
     19664 TIP3     764      TIP3     OH2      OT      -0.834000       15.9994           0
     19665 TIP3     764      TIP3     H1       HT       0.417000       1.00800           0
     19666 TIP3     764      TIP3     H2       HT       0.417000       1.00800           0
     19667 TIP3     765      TIP3     OH2      OT      -0.834000       15.9994           0
     19668 TIP3     765      TIP3     H1       HT       0.417000       1.00800           0
     19669 TIP3     765      TIP3     H2       HT       0.417000       1.00800           0
     19670 TIP3     766      TIP3     OH2      OT      -0.834000       15.9994           0
     19671 TIP3     766      TIP3     H1       HT       0.417000       1.00800           0
     19672 TIP3     766      TIP3     H2       HT       0.417000       1.00800           0
     19673 TIP3     767      TIP3     OH2      OT      -0.834000       15.9994           0
     19674 TIP3     767      TIP3     H1       HT       0.417000       1.00800           0
     19675 TIP3     767      TIP3     H2       HT       0.417000       1.00800           0
     19676 TIP3     768      TIP3     OH2      OT      -0.834000       15.9994           0
     19677 TIP3     768      TIP3     H1       HT       0.417000       1.00800           0
     19678 TIP3     768      TIP3     H2       HT       0.417000       1.00800           0
     19679 TIP3     769      TIP3     OH2      OT      -0.834000       15.9994           0
     19680 TIP3     769      TIP3     H1       HT       0.417000       1.00800           0
     19681 TIP3     769      TIP3     H2       HT       0.417000       1.00800           0
     19682 TIP3     770      TIP3     OH2      OT      -0.834000       15.9994           0
     19683 TIP3     770      TIP3     H1       HT       0.417000       1.00800           0
     19684 TIP3     770      TIP3     H2       HT       0.417000       1.00800           0
     19685 TIP3     771      TIP3     OH2      OT      -0.834000       15.9994           0
     19686 TIP3     771      TIP3     H1       HT       0.417000       1.00800           0
     19687 TIP3     771      TIP3     H2       HT       0.417000       1.00800           0
     19688 TIP3     772      TIP3     OH2      OT      -0.834000       15.9994           0
     19689 TIP3     772      TIP3     H1       HT       0.417000       1.00800           0
     19690 TIP3     772      TIP3     H2       HT       0.417000       1.00800           0
     19691 TIP3     773      TIP3     OH2      OT      -0.834000       15.9994           0
     19692 TIP3     773      TIP3     H1       HT       0.417000       1.00800           0
     19693 TIP3     773      TIP3     H2       HT       0.417000       1.00800           0
     19694 TIP3     774      TIP3     OH2      OT      -0.834000       15.9994           0
     19695 TIP3     774      TIP3     H1       HT       0.417000       1.00800           0
     19696 TIP3     774      TIP3     H2       HT       0.417000       1.00800           0
     19697 TIP3     775      TIP3     OH2      OT      -0.834000       15.9994           0
     19698 TIP3     775      TIP3     H1       HT       0.417000       1.00800           0
     19699 TIP3     775      TIP3     H2       HT       0.417000       1.00800           0
     19700 TIP3     776      TIP3     OH2      OT      -0.834000       15.9994           0
     19701 TIP3     776      TIP3     H1       HT       0.417000       1.00800           0
     19702 TIP3     776      TIP3     H2       HT       0.417000       1.00800           0
     19703 TIP3     777      TIP3     OH2      OT      -0.834000       15.9994           0
     19704 TIP3     777      TIP3     H1       HT       0.417000       1.00800           0
     19705 TIP3     777      TIP3     H2       HT       0.417000       1.00800           0
     19706 TIP3     778      TIP3     OH2      OT      -0.834000       15.9994           0
     19707 TIP3     778      TIP3     H1       HT       0.417000       1.00800           0
     19708 TIP3     778      TIP3     H2       HT       0.417000       1.00800           0
     19709 TIP3     779      TIP3     OH2      OT      -0.834000       15.9994           0
     19710 TIP3     779      TIP3     H1       HT       0.417000       1.00800           0
     19711 TIP3     779      TIP3     H2       HT       0.417000       1.00800           0
     19712 TIP3     780      TIP3     OH2      OT      -0.834000       15.9994           0
     19713 TIP3     780      TIP3     H1       HT       0.417000       1.00800           0
     19714 TIP3     780      TIP3     H2       HT       0.417000       1.00800           0
     19715 TIP3     781      TIP3     OH2      OT      -0.834000       15.9994           0
     19716 TIP3     781      TIP3     H1       HT       0.417000       1.00800           0
     19717 TIP3     781      TIP3     H2       HT       0.417000       1.00800           0
     19718 TIP3     782      TIP3     OH2      OT      -0.834000       15.9994           0
     19719 TIP3     782      TIP3     H1       HT       0.417000       1.00800           0
     19720 TIP3     782      TIP3     H2       HT       0.417000       1.00800           0
     19721 TIP3     783      TIP3     OH2      OT      -0.834000       15.9994           0
     19722 TIP3     783      TIP3     H1       HT       0.417000       1.00800           0
     19723 TIP3     783      TIP3     H2       HT       0.417000       1.00800           0
     19724 TIP3     784      TIP3     OH2      OT      -0.834000       15.9994           0
     19725 TIP3     784      TIP3     H1       HT       0.417000       1.00800           0
     19726 TIP3     784      TIP3     H2       HT       0.417000       1.00800           0
     19727 TIP3     785      TIP3     OH2      OT      -0.834000       15.9994           0
     19728 TIP3     785      TIP3     H1       HT       0.417000       1.00800           0
     19729 TIP3     785      TIP3     H2       HT       0.417000       1.00800           0
     19730 TIP3     786      TIP3     OH2      OT      -0.834000       15.9994           0
     19731 TIP3     786      TIP3     H1       HT       0.417000       1.00800           0
     19732 TIP3     786      TIP3     H2       HT       0.417000       1.00800           0
     19733 TIP3     787      TIP3     OH2      OT      -0.834000       15.9994           0
     19734 TIP3     787      TIP3     H1       HT       0.417000       1.00800           0
     19735 TIP3     787      TIP3     H2       HT       0.417000       1.00800           0
     19736 TIP3     788      TIP3     OH2      OT      -0.834000       15.9994           0
     19737 TIP3     788      TIP3     H1       HT       0.417000       1.00800           0
     19738 TIP3     788      TIP3     H2       HT       0.417000       1.00800           0
     19739 TIP3     789      TIP3     OH2      OT      -0.834000       15.9994           0
     19740 TIP3     789      TIP3     H1       HT       0.417000       1.00800           0
     19741 TIP3     789      TIP3     H2       HT       0.417000       1.00800           0
     19742 TIP3     790      TIP3     OH2      OT      -0.834000       15.9994           0
     19743 TIP3     790      TIP3     H1       HT       0.417000       1.00800           0
     19744 TIP3     790      TIP3     H2       HT       0.417000       1.00800           0
     19745 TIP3     791      TIP3     OH2      OT      -0.834000       15.9994           0
     19746 TIP3     791      TIP3     H1       HT       0.417000       1.00800           0
     19747 TIP3     791      TIP3     H2       HT       0.417000       1.00800           0
     19748 TIP3     792      TIP3     OH2      OT      -0.834000       15.9994           0
     19749 TIP3     792      TIP3     H1       HT       0.417000       1.00800           0
     19750 TIP3     792      TIP3     H2       HT       0.417000       1.00800           0
     19751 TIP3     793      TIP3     OH2      OT      -0.834000       15.9994           0
     19752 TIP3     793      TIP3     H1       HT       0.417000       1.00800           0
     19753 TIP3     793      TIP3     H2       HT       0.417000       1.00800           0
     19754 TIP3     794      TIP3     OH2      OT      -0.834000       15.9994           0
     19755 TIP3     794      TIP3     H1       HT       0.417000       1.00800           0
     19756 TIP3     794      TIP3     H2       HT       0.417000       1.00800           0
     19757 TIP3     795      TIP3     OH2      OT      -0.834000       15.9994           0
     19758 TIP3     795      TIP3     H1       HT       0.417000       1.00800           0
     19759 TIP3     795      TIP3     H2       HT       0.417000       1.00800           0
     19760 TIP3     796      TIP3     OH2      OT      -0.834000       15.9994           0
     19761 TIP3     796      TIP3     H1       HT       0.417000       1.00800           0
     19762 TIP3     796      TIP3     H2       HT       0.417000       1.00800           0
     19763 TIP3     797      TIP3     OH2      OT      -0.834000       15.9994           0
     19764 TIP3     797      TIP3     H1       HT       0.417000       1.00800           0
     19765 TIP3     797      TIP3     H2       HT       0.417000       1.00800           0
     19766 TIP3     798      TIP3     OH2      OT      -0.834000       15.9994           0
     19767 TIP3     798      TIP3     H1       HT       0.417000       1.00800           0
     19768 TIP3     798      TIP3     H2       HT       0.417000       1.00800           0
     19769 TIP3     799      TIP3     OH2      OT      -0.834000       15.9994           0
     19770 TIP3     799      TIP3     H1       HT       0.417000       1.00800           0
     19771 TIP3     799      TIP3     H2       HT       0.417000       1.00800           0
     19772 TIP3     800      TIP3     OH2      OT      -0.834000       15.9994           0
     19773 TIP3     800      TIP3     H1       HT       0.417000       1.00800           0
     19774 TIP3     800      TIP3     H2       HT       0.417000       1.00800           0
     19775 TIP3     801      TIP3     OH2      OT      -0.834000       15.9994           0
     19776 TIP3     801      TIP3     H1       HT       0.417000       1.00800           0
     19777 TIP3     801      TIP3     H2       HT       0.417000       1.00800           0
     19778 TIP3     802      TIP3     OH2      OT      -0.834000       15.9994           0
     19779 TIP3     802      TIP3     H1       HT       0.417000       1.00800           0
     19780 TIP3     802      TIP3     H2       HT       0.417000       1.00800           0
     19781 TIP3     803      TIP3     OH2      OT      -0.834000       15.9994           0
     19782 TIP3     803      TIP3     H1       HT       0.417000       1.00800           0
     19783 TIP3     803      TIP3     H2       HT       0.417000       1.00800           0
     19784 TIP3     804      TIP3     OH2      OT      -0.834000       15.9994           0
     19785 TIP3     804      TIP3     H1       HT       0.417000       1.00800           0
     19786 TIP3     804      TIP3     H2       HT       0.417000       1.00800           0
     19787 TIP3     805      TIP3     OH2      OT      -0.834000       15.9994           0
     19788 TIP3     805      TIP3     H1       HT       0.417000       1.00800           0
     19789 TIP3     805      TIP3     H2       HT       0.417000       1.00800           0
     19790 TIP3     806      TIP3     OH2      OT      -0.834000       15.9994           0
     19791 TIP3     806      TIP3     H1       HT       0.417000       1.00800           0
     19792 TIP3     806      TIP3     H2       HT       0.417000       1.00800           0
     19793 TIP3     807      TIP3     OH2      OT      -0.834000       15.9994           0
     19794 TIP3     807      TIP3     H1       HT       0.417000       1.00800           0
     19795 TIP3     807      TIP3     H2       HT       0.417000       1.00800           0
     19796 TIP3     808      TIP3     OH2      OT      -0.834000       15.9994           0
     19797 TIP3     808      TIP3     H1       HT       0.417000       1.00800           0
     19798 TIP3     808      TIP3     H2       HT       0.417000       1.00800           0
     19799 TIP3     809      TIP3     OH2      OT      -0.834000       15.9994           0
     19800 TIP3     809      TIP3     H1       HT       0.417000       1.00800           0
     19801 TIP3     809      TIP3     H2       HT       0.417000       1.00800           0
     19802 TIP3     810      TIP3     OH2      OT      -0.834000       15.9994           0
     19803 TIP3     810      TIP3     H1       HT       0.417000       1.00800           0
     19804 TIP3     810      TIP3     H2       HT       0.417000       1.00800           0
     19805 TIP3     811      TIP3     OH2      OT      -0.834000       15.9994           0
     19806 TIP3     811      TIP3     H1       HT       0.417000       1.00800           0
     19807 TIP3     811      TIP3     H2       HT       0.417000       1.00800           0
     19808 TIP3     812      TIP3     OH2      OT      -0.834000       15.9994           0
     19809 TIP3     812      TIP3     H1       HT       0.417000       1.00800           0
     19810 TIP3     812      TIP3     H2       HT       0.417000       1.00800           0
     19811 TIP3     813      TIP3     OH2      OT      -0.834000       15.9994           0
     19812 TIP3     813      TIP3     H1       HT       0.417000       1.00800           0
     19813 TIP3     813      TIP3     H2       HT       0.417000       1.00800           0
     19814 TIP3     814      TIP3     OH2      OT      -0.834000       15.9994           0
     19815 TIP3     814      TIP3     H1       HT       0.417000       1.00800           0
     19816 TIP3     814      TIP3     H2       HT       0.417000       1.00800           0
     19817 TIP3     815      TIP3     OH2      OT      -0.834000       15.9994           0
     19818 TIP3     815      TIP3     H1       HT       0.417000       1.00800           0
     19819 TIP3     815      TIP3     H2       HT       0.417000       1.00800           0
     19820 TIP3     816      TIP3     OH2      OT      -0.834000       15.9994           0
     19821 TIP3     816      TIP3     H1       HT       0.417000       1.00800           0
     19822 TIP3     816      TIP3     H2       HT       0.417000       1.00800           0
     19823 TIP3     817      TIP3     OH2      OT      -0.834000       15.9994           0
     19824 TIP3     817      TIP3     H1       HT       0.417000       1.00800           0
     19825 TIP3     817      TIP3     H2       HT       0.417000       1.00800           0
     19826 TIP3     818      TIP3     OH2      OT      -0.834000       15.9994           0
     19827 TIP3     818      TIP3     H1       HT       0.417000       1.00800           0
     19828 TIP3     818      TIP3     H2       HT       0.417000       1.00800           0
     19829 TIP3     819      TIP3     OH2      OT      -0.834000       15.9994           0
     19830 TIP3     819      TIP3     H1       HT       0.417000       1.00800           0
     19831 TIP3     819      TIP3     H2       HT       0.417000       1.00800           0
     19832 TIP3     820      TIP3     OH2      OT      -0.834000       15.9994           0
     19833 TIP3     820      TIP3     H1       HT       0.417000       1.00800           0
     19834 TIP3     820      TIP3     H2       HT       0.417000       1.00800           0
     19835 TIP3     821      TIP3     OH2      OT      -0.834000       15.9994           0
     19836 TIP3     821      TIP3     H1       HT       0.417000       1.00800           0
     19837 TIP3     821      TIP3     H2       HT       0.417000       1.00800           0
     19838 TIP3     822      TIP3     OH2      OT      -0.834000       15.9994           0
     19839 TIP3     822      TIP3     H1       HT       0.417000       1.00800           0
     19840 TIP3     822      TIP3     H2       HT       0.417000       1.00800           0
     19841 TIP3     823      TIP3     OH2      OT      -0.834000       15.9994           0
     19842 TIP3     823      TIP3     H1       HT       0.417000       1.00800           0
     19843 TIP3     823      TIP3     H2       HT       0.417000       1.00800           0
     19844 TIP3     824      TIP3     OH2      OT      -0.834000       15.9994           0
     19845 TIP3     824      TIP3     H1       HT       0.417000       1.00800           0
     19846 TIP3     824      TIP3     H2       HT       0.417000       1.00800           0
     19847 TIP3     825      TIP3     OH2      OT      -0.834000       15.9994           0
     19848 TIP3     825      TIP3     H1       HT       0.417000       1.00800           0
     19849 TIP3     825      TIP3     H2       HT       0.417000       1.00800           0
     19850 TIP3     826      TIP3     OH2      OT      -0.834000       15.9994           0
     19851 TIP3     826      TIP3     H1       HT       0.417000       1.00800           0
     19852 TIP3     826      TIP3     H2       HT       0.417000       1.00800           0
     19853 TIP3     827      TIP3     OH2      OT      -0.834000       15.9994           0
     19854 TIP3     827      TIP3     H1       HT       0.417000       1.00800           0
     19855 TIP3     827      TIP3     H2       HT       0.417000       1.00800           0
     19856 TIP3     828      TIP3     OH2      OT      -0.834000       15.9994           0
     19857 TIP3     828      TIP3     H1       HT       0.417000       1.00800           0
     19858 TIP3     828      TIP3     H2       HT       0.417000       1.00800           0
     19859 TIP3     829      TIP3     OH2      OT      -0.834000       15.9994           0
     19860 TIP3     829      TIP3     H1       HT       0.417000       1.00800           0
     19861 TIP3     829      TIP3     H2       HT       0.417000       1.00800           0
     19862 TIP3     830      TIP3     OH2      OT      -0.834000       15.9994           0
     19863 TIP3     830      TIP3     H1       HT       0.417000       1.00800           0
     19864 TIP3     830      TIP3     H2       HT       0.417000       1.00800           0
     19865 TIP3     831      TIP3     OH2      OT      -0.834000       15.9994           0
     19866 TIP3     831      TIP3     H1       HT       0.417000       1.00800           0
     19867 TIP3     831      TIP3     H2       HT       0.417000       1.00800           0
     19868 TIP3     832      TIP3     OH2      OT      -0.834000       15.9994           0
     19869 TIP3     832      TIP3     H1       HT       0.417000       1.00800           0
     19870 TIP3     832      TIP3     H2       HT       0.417000       1.00800           0
     19871 TIP3     833      TIP3     OH2      OT      -0.834000       15.9994           0
     19872 TIP3     833      TIP3     H1       HT       0.417000       1.00800           0
     19873 TIP3     833      TIP3     H2       HT       0.417000       1.00800           0
     19874 TIP3     834      TIP3     OH2      OT      -0.834000       15.9994           0
     19875 TIP3     834      TIP3     H1       HT       0.417000       1.00800           0
     19876 TIP3     834      TIP3     H2       HT       0.417000       1.00800           0
     19877 TIP3     835      TIP3     OH2      OT      -0.834000       15.9994           0
     19878 TIP3     835      TIP3     H1       HT       0.417000       1.00800           0
     19879 TIP3     835      TIP3     H2       HT       0.417000       1.00800           0
     19880 TIP3     836      TIP3     OH2      OT      -0.834000       15.9994           0
     19881 TIP3     836      TIP3     H1       HT       0.417000       1.00800           0
     19882 TIP3     836      TIP3     H2       HT       0.417000       1.00800           0
     19883 TIP3     837      TIP3     OH2      OT      -0.834000       15.9994           0
     19884 TIP3     837      TIP3     H1       HT       0.417000       1.00800           0
     19885 TIP3     837      TIP3     H2       HT       0.417000       1.00800           0
     19886 TIP3     838      TIP3     OH2      OT      -0.834000       15.9994           0
     19887 TIP3     838      TIP3     H1       HT       0.417000       1.00800           0
     19888 TIP3     838      TIP3     H2       HT       0.417000       1.00800           0
     19889 TIP3     839      TIP3     OH2      OT      -0.834000       15.9994           0
     19890 TIP3     839      TIP3     H1       HT       0.417000       1.00800           0
     19891 TIP3     839      TIP3     H2       HT       0.417000       1.00800           0
     19892 TIP3     840      TIP3     OH2      OT      -0.834000       15.9994           0
     19893 TIP3     840      TIP3     H1       HT       0.417000       1.00800           0
     19894 TIP3     840      TIP3     H2       HT       0.417000       1.00800           0
     19895 TIP3     841      TIP3     OH2      OT      -0.834000       15.9994           0
     19896 TIP3     841      TIP3     H1       HT       0.417000       1.00800           0
     19897 TIP3     841      TIP3     H2       HT       0.417000       1.00800           0
     19898 TIP3     842      TIP3     OH2      OT      -0.834000       15.9994           0
     19899 TIP3     842      TIP3     H1       HT       0.417000       1.00800           0
     19900 TIP3     842      TIP3     H2       HT       0.417000       1.00800           0
     19901 TIP3     843      TIP3     OH2      OT      -0.834000       15.9994           0
     19902 TIP3     843      TIP3     H1       HT       0.417000       1.00800           0
     19903 TIP3     843      TIP3     H2       HT       0.417000       1.00800           0
     19904 TIP3     844      TIP3     OH2      OT      -0.834000       15.9994           0
     19905 TIP3     844      TIP3     H1       HT       0.417000       1.00800           0
     19906 TIP3     844      TIP3     H2       HT       0.417000       1.00800           0
     19907 TIP3     845      TIP3     OH2      OT      -0.834000       15.9994           0
     19908 TIP3     845      TIP3     H1       HT       0.417000       1.00800           0
     19909 TIP3     845      TIP3     H2       HT       0.417000       1.00800           0
     19910 TIP3     846      TIP3     OH2      OT      -0.834000       15.9994           0
     19911 TIP3     846      TIP3     H1       HT       0.417000       1.00800           0
     19912 TIP3     846      TIP3     H2       HT       0.417000       1.00800           0
     19913 TIP3     847      TIP3     OH2      OT      -0.834000       15.9994           0
     19914 TIP3     847      TIP3     H1       HT       0.417000       1.00800           0
     19915 TIP3     847      TIP3     H2       HT       0.417000       1.00800           0
     19916 TIP3     848      TIP3     OH2      OT      -0.834000       15.9994           0
     19917 TIP3     848      TIP3     H1       HT       0.417000       1.00800           0
     19918 TIP3     848      TIP3     H2       HT       0.417000       1.00800           0
     19919 TIP3     849      TIP3     OH2      OT      -0.834000       15.9994           0
     19920 TIP3     849      TIP3     H1       HT       0.417000       1.00800           0
     19921 TIP3     849      TIP3     H2       HT       0.417000       1.00800           0
     19922 TIP3     850      TIP3     OH2      OT      -0.834000       15.9994           0
     19923 TIP3     850      TIP3     H1       HT       0.417000       1.00800           0
     19924 TIP3     850      TIP3     H2       HT       0.417000       1.00800           0
     19925 TIP3     851      TIP3     OH2      OT      -0.834000       15.9994           0
     19926 TIP3     851      TIP3     H1       HT       0.417000       1.00800           0
     19927 TIP3     851      TIP3     H2       HT       0.417000       1.00800           0
     19928 TIP3     852      TIP3     OH2      OT      -0.834000       15.9994           0
     19929 TIP3     852      TIP3     H1       HT       0.417000       1.00800           0
     19930 TIP3     852      TIP3     H2       HT       0.417000       1.00800           0
     19931 TIP3     853      TIP3     OH2      OT      -0.834000       15.9994           0
     19932 TIP3     853      TIP3     H1       HT       0.417000       1.00800           0
     19933 TIP3     853      TIP3     H2       HT       0.417000       1.00800           0
     19934 TIP3     854      TIP3     OH2      OT      -0.834000       15.9994           0
     19935 TIP3     854      TIP3     H1       HT       0.417000       1.00800           0
     19936 TIP3     854      TIP3     H2       HT       0.417000       1.00800           0
     19937 TIP3     855      TIP3     OH2      OT      -0.834000       15.9994           0
     19938 TIP3     855      TIP3     H1       HT       0.417000       1.00800           0
     19939 TIP3     855      TIP3     H2       HT       0.417000       1.00800           0
     19940 TIP3     856      TIP3     OH2      OT      -0.834000       15.9994           0
     19941 TIP3     856      TIP3     H1       HT       0.417000       1.00800           0
     19942 TIP3     856      TIP3     H2       HT       0.417000       1.00800           0
     19943 TIP3     857      TIP3     OH2      OT      -0.834000       15.9994           0
     19944 TIP3     857      TIP3     H1       HT       0.417000       1.00800           0
     19945 TIP3     857      TIP3     H2       HT       0.417000       1.00800           0
     19946 TIP3     858      TIP3     OH2      OT      -0.834000       15.9994           0
     19947 TIP3     858      TIP3     H1       HT       0.417000       1.00800           0
     19948 TIP3     858      TIP3     H2       HT       0.417000       1.00800           0
     19949 TIP3     859      TIP3     OH2      OT      -0.834000       15.9994           0
     19950 TIP3     859      TIP3     H1       HT       0.417000       1.00800           0
     19951 TIP3     859      TIP3     H2       HT       0.417000       1.00800           0
     19952 TIP3     860      TIP3     OH2      OT      -0.834000       15.9994           0
     19953 TIP3     860      TIP3     H1       HT       0.417000       1.00800           0
     19954 TIP3     860      TIP3     H2       HT       0.417000       1.00800           0
     19955 TIP3     861      TIP3     OH2      OT      -0.834000       15.9994           0
     19956 TIP3     861      TIP3     H1       HT       0.417000       1.00800           0
     19957 TIP3     861      TIP3     H2       HT       0.417000       1.00800           0
     19958 TIP3     862      TIP3     OH2      OT      -0.834000       15.9994           0
     19959 TIP3     862      TIP3     H1       HT       0.417000       1.00800           0
     19960 TIP3     862      TIP3     H2       HT       0.417000       1.00800           0
     19961 TIP3     863      TIP3     OH2      OT      -0.834000       15.9994           0
     19962 TIP3     863      TIP3     H1       HT       0.417000       1.00800           0
     19963 TIP3     863      TIP3     H2       HT       0.417000       1.00800           0
     19964 TIP3     864      TIP3     OH2      OT      -0.834000       15.9994           0
     19965 TIP3     864      TIP3     H1       HT       0.417000       1.00800           0
     19966 TIP3     864      TIP3     H2       HT       0.417000       1.00800           0
     19967 TIP3     865      TIP3     OH2      OT      -0.834000       15.9994           0
     19968 TIP3     865      TIP3     H1       HT       0.417000       1.00800           0
     19969 TIP3     865      TIP3     H2       HT       0.417000       1.00800           0
     19970 TIP3     866      TIP3     OH2      OT      -0.834000       15.9994           0
     19971 TIP3     866      TIP3     H1       HT       0.417000       1.00800           0
     19972 TIP3     866      TIP3     H2       HT       0.417000       1.00800           0
     19973 TIP3     867      TIP3     OH2      OT      -0.834000       15.9994           0
     19974 TIP3     867      TIP3     H1       HT       0.417000       1.00800           0
     19975 TIP3     867      TIP3     H2       HT       0.417000       1.00800           0
     19976 TIP3     868      TIP3     OH2      OT      -0.834000       15.9994           0
     19977 TIP3     868      TIP3     H1       HT       0.417000       1.00800           0
     19978 TIP3     868      TIP3     H2       HT       0.417000       1.00800           0
     19979 TIP3     869      TIP3     OH2      OT      -0.834000       15.9994           0
     19980 TIP3     869      TIP3     H1       HT       0.417000       1.00800           0
     19981 TIP3     869      TIP3     H2       HT       0.417000       1.00800           0
     19982 TIP3     870      TIP3     OH2      OT      -0.834000       15.9994           0
     19983 TIP3     870      TIP3     H1       HT       0.417000       1.00800           0
     19984 TIP3     870      TIP3     H2       HT       0.417000       1.00800           0
     19985 TIP3     871      TIP3     OH2      OT      -0.834000       15.9994           0
     19986 TIP3     871      TIP3     H1       HT       0.417000       1.00800           0
     19987 TIP3     871      TIP3     H2       HT       0.417000       1.00800           0
     19988 TIP3     872      TIP3     OH2      OT      -0.834000       15.9994           0
     19989 TIP3     872      TIP3     H1       HT       0.417000       1.00800           0
     19990 TIP3     872      TIP3     H2       HT       0.417000       1.00800           0
     19991 TIP3     873      TIP3     OH2      OT      -0.834000       15.9994           0
     19992 TIP3     873      TIP3     H1       HT       0.417000       1.00800           0
     19993 TIP3     873      TIP3     H2       HT       0.417000       1.00800           0
     19994 TIP3     874      TIP3     OH2      OT      -0.834000       15.9994           0
     19995 TIP3     874      TIP3     H1       HT       0.417000       1.00800           0
     19996 TIP3     874      TIP3     H2       HT       0.417000       1.00800           0
     19997 TIP3     875      TIP3     OH2      OT      -0.834000       15.9994           0
     19998 TIP3     875      TIP3     H1       HT       0.417000       1.00800           0
     19999 TIP3     875      TIP3     H2       HT       0.417000       1.00800           0
     20000 TIP3     876      TIP3     OH2      OT      -0.834000       15.9994           0
     20001 TIP3     876      TIP3     H1       HT       0.417000       1.00800           0
     20002 TIP3     876      TIP3     H2       HT       0.417000       1.00800           0
     20003 TIP3     877      TIP3     OH2      OT      -0.834000       15.9994           0
     20004 TIP3     877      TIP3     H1       HT       0.417000       1.00800           0
     20005 TIP3     877      TIP3     H2       HT       0.417000       1.00800           0
     20006 TIP3     878      TIP3     OH2      OT      -0.834000       15.9994           0
     20007 TIP3     878      TIP3     H1       HT       0.417000       1.00800           0
     20008 TIP3     878      TIP3     H2       HT       0.417000       1.00800           0
     20009 TIP3     879      TIP3     OH2      OT      -0.834000       15.9994           0
     20010 TIP3     879      TIP3     H1       HT       0.417000       1.00800           0
     20011 TIP3     879      TIP3     H2       HT       0.417000       1.00800           0
     20012 TIP3     880      TIP3     OH2      OT      -0.834000       15.9994           0
     20013 TIP3     880      TIP3     H1       HT       0.417000       1.00800           0
     20014 TIP3     880      TIP3     H2       HT       0.417000       1.00800           0
     20015 TIP3     881      TIP3     OH2      OT      -0.834000       15.9994           0
     20016 TIP3     881      TIP3     H1       HT       0.417000       1.00800           0
     20017 TIP3     881      TIP3     H2       HT       0.417000       1.00800           0
     20018 TIP3     882      TIP3     OH2      OT      -0.834000       15.9994           0
     20019 TIP3     882      TIP3     H1       HT       0.417000       1.00800           0
     20020 TIP3     882      TIP3     H2       HT       0.417000       1.00800           0
     20021 TIP3     883      TIP3     OH2      OT      -0.834000       15.9994           0
     20022 TIP3     883      TIP3     H1       HT       0.417000       1.00800           0
     20023 TIP3     883      TIP3     H2       HT       0.417000       1.00800           0
     20024 TIP3     884      TIP3     OH2      OT      -0.834000       15.9994           0
     20025 TIP3     884      TIP3     H1       HT       0.417000       1.00800           0
     20026 TIP3     884      TIP3     H2       HT       0.417000       1.00800           0
     20027 TIP3     885      TIP3     OH2      OT      -0.834000       15.9994           0
     20028 TIP3     885      TIP3     H1       HT       0.417000       1.00800           0
     20029 TIP3     885      TIP3     H2       HT       0.417000       1.00800           0
     20030 TIP3     886      TIP3     OH2      OT      -0.834000       15.9994           0
     20031 TIP3     886      TIP3     H1       HT       0.417000       1.00800           0
     20032 TIP3     886      TIP3     H2       HT       0.417000       1.00800           0
     20033 TIP3     887      TIP3     OH2      OT      -0.834000       15.9994           0
     20034 TIP3     887      TIP3     H1       HT       0.417000       1.00800           0
     20035 TIP3     887      TIP3     H2       HT       0.417000       1.00800           0
     20036 TIP3     888      TIP3     OH2      OT      -0.834000       15.9994           0
     20037 TIP3     888      TIP3     H1       HT       0.417000       1.00800           0
     20038 TIP3     888      TIP3     H2       HT       0.417000       1.00800           0
     20039 TIP3     889      TIP3     OH2      OT      -0.834000       15.9994           0
     20040 TIP3     889      TIP3     H1       HT       0.417000       1.00800           0
     20041 TIP3     889      TIP3     H2       HT       0.417000       1.00800           0
     20042 TIP3     890      TIP3     OH2      OT      -0.834000       15.9994           0
     20043 TIP3     890      TIP3     H1       HT       0.417000       1.00800           0
     20044 TIP3     890      TIP3     H2       HT       0.417000       1.00800           0
     20045 TIP3     891      TIP3     OH2      OT      -0.834000       15.9994           0
     20046 TIP3     891      TIP3     H1       HT       0.417000       1.00800           0
     20047 TIP3     891      TIP3     H2       HT       0.417000       1.00800           0
     20048 TIP3     892      TIP3     OH2      OT      -0.834000       15.9994           0
     20049 TIP3     892      TIP3     H1       HT       0.417000       1.00800           0
     20050 TIP3     892      TIP3     H2       HT       0.417000       1.00800           0
     20051 TIP3     893      TIP3     OH2      OT      -0.834000       15.9994           0
     20052 TIP3     893      TIP3     H1       HT       0.417000       1.00800           0
     20053 TIP3     893      TIP3     H2       HT       0.417000       1.00800           0
     20054 TIP3     894      TIP3     OH2      OT      -0.834000       15.9994           0
     20055 TIP3     894      TIP3     H1       HT       0.417000       1.00800           0
     20056 TIP3     894      TIP3     H2       HT       0.417000       1.00800           0
     20057 TIP3     895      TIP3     OH2      OT      -0.834000       15.9994           0
     20058 TIP3     895      TIP3     H1       HT       0.417000       1.00800           0
     20059 TIP3     895      TIP3     H2       HT       0.417000       1.00800           0
     20060 TIP3     896      TIP3     OH2      OT      -0.834000       15.9994           0
     20061 TIP3     896      TIP3     H1       HT       0.417000       1.00800           0
     20062 TIP3     896      TIP3     H2       HT       0.417000       1.00800           0
     20063 TIP3     897      TIP3     OH2      OT      -0.834000       15.9994           0
     20064 TIP3     897      TIP3     H1       HT       0.417000       1.00800           0
     20065 TIP3     897      TIP3     H2       HT       0.417000       1.00800           0
     20066 TIP3     898      TIP3     OH2      OT      -0.834000       15.9994           0
     20067 TIP3     898      TIP3     H1       HT       0.417000       1.00800           0
     20068 TIP3     898      TIP3     H2       HT       0.417000       1.00800           0
     20069 TIP3     899      TIP3     OH2      OT      -0.834000       15.9994           0
     20070 TIP3     899      TIP3     H1       HT       0.417000       1.00800           0
     20071 TIP3     899      TIP3     H2       HT       0.417000       1.00800           0
     20072 TIP3     900      TIP3     OH2      OT      -0.834000       15.9994           0
     20073 TIP3     900      TIP3     H1       HT       0.417000       1.00800           0
     20074 TIP3     900      TIP3     H2       HT       0.417000       1.00800           0
     20075 TIP3     901      TIP3     OH2      OT      -0.834000       15.9994           0
     20076 TIP3     901      TIP3     H1       HT       0.417000       1.00800           0
     20077 TIP3     901      TIP3     H2       HT       0.417000       1.00800           0
     20078 TIP3     902      TIP3     OH2      OT      -0.834000       15.9994           0
     20079 TIP3     902      TIP3     H1       HT       0.417000       1.00800           0
     20080 TIP3     902      TIP3     H2       HT       0.417000       1.00800           0
     20081 TIP3     903      TIP3     OH2      OT      -0.834000       15.9994           0
     20082 TIP3     903      TIP3     H1       HT       0.417000       1.00800           0
     20083 TIP3     903      TIP3     H2       HT       0.417000       1.00800           0
     20084 TIP3     904      TIP3     OH2      OT      -0.834000       15.9994           0
     20085 TIP3     904      TIP3     H1       HT       0.417000       1.00800           0
     20086 TIP3     904      TIP3     H2       HT       0.417000       1.00800           0
     20087 TIP3     905      TIP3     OH2      OT      -0.834000       15.9994           0
     20088 TIP3     905      TIP3     H1       HT       0.417000       1.00800           0
     20089 TIP3     905      TIP3     H2       HT       0.417000       1.00800           0
     20090 TIP3     906      TIP3     OH2      OT      -0.834000       15.9994           0
     20091 TIP3     906      TIP3     H1       HT       0.417000       1.00800           0
     20092 TIP3     906      TIP3     H2       HT       0.417000       1.00800           0
     20093 TIP3     907      TIP3     OH2      OT      -0.834000       15.9994           0
     20094 TIP3     907      TIP3     H1       HT       0.417000       1.00800           0
     20095 TIP3     907      TIP3     H2       HT       0.417000       1.00800           0
     20096 TIP3     908      TIP3     OH2      OT      -0.834000       15.9994           0
     20097 TIP3     908      TIP3     H1       HT       0.417000       1.00800           0
     20098 TIP3     908      TIP3     H2       HT       0.417000       1.00800           0
     20099 TIP3     909      TIP3     OH2      OT      -0.834000       15.9994           0
     20100 TIP3     909      TIP3     H1       HT       0.417000       1.00800           0
     20101 TIP3     909      TIP3     H2       HT       0.417000       1.00800           0
     20102 TIP3     910      TIP3     OH2      OT      -0.834000       15.9994           0
     20103 TIP3     910      TIP3     H1       HT       0.417000       1.00800           0
     20104 TIP3     910      TIP3     H2       HT       0.417000       1.00800           0
     20105 TIP3     911      TIP3     OH2      OT      -0.834000       15.9994           0
     20106 TIP3     911      TIP3     H1       HT       0.417000       1.00800           0
     20107 TIP3     911      TIP3     H2       HT       0.417000       1.00800           0
     20108 TIP3     912      TIP3     OH2      OT      -0.834000       15.9994           0
     20109 TIP3     912      TIP3     H1       HT       0.417000       1.00800           0
     20110 TIP3     912      TIP3     H2       HT       0.417000       1.00800           0
     20111 TIP3     913      TIP3     OH2      OT      -0.834000       15.9994           0
     20112 TIP3     913      TIP3     H1       HT       0.417000       1.00800           0
     20113 TIP3     913      TIP3     H2       HT       0.417000       1.00800           0
     20114 TIP3     914      TIP3     OH2      OT      -0.834000       15.9994           0
     20115 TIP3     914      TIP3     H1       HT       0.417000       1.00800           0
     20116 TIP3     914      TIP3     H2       HT       0.417000       1.00800           0
     20117 TIP3     915      TIP3     OH2      OT      -0.834000       15.9994           0
     20118 TIP3     915      TIP3     H1       HT       0.417000       1.00800           0
     20119 TIP3     915      TIP3     H2       HT       0.417000       1.00800           0
     20120 TIP3     916      TIP3     OH2      OT      -0.834000       15.9994           0
     20121 TIP3     916      TIP3     H1       HT       0.417000       1.00800           0
     20122 TIP3     916      TIP3     H2       HT       0.417000       1.00800           0
     20123 TIP3     917      TIP3     OH2      OT      -0.834000       15.9994           0
     20124 TIP3     917      TIP3     H1       HT       0.417000       1.00800           0
     20125 TIP3     917      TIP3     H2       HT       0.417000       1.00800           0
     20126 TIP3     918      TIP3     OH2      OT      -0.834000       15.9994           0
     20127 TIP3     918      TIP3     H1       HT       0.417000       1.00800           0
     20128 TIP3     918      TIP3     H2       HT       0.417000       1.00800           0
     20129 TIP3     919      TIP3     OH2      OT      -0.834000       15.9994           0
     20130 TIP3     919      TIP3     H1       HT       0.417000       1.00800           0
     20131 TIP3     919      TIP3     H2       HT       0.417000       1.00800           0
     20132 TIP3     920      TIP3     OH2      OT      -0.834000       15.9994           0
     20133 TIP3     920      TIP3     H1       HT       0.417000       1.00800           0
     20134 TIP3     920      TIP3     H2       HT       0.417000       1.00800           0
     20135 TIP3     921      TIP3     OH2      OT      -0.834000       15.9994           0
     20136 TIP3     921      TIP3     H1       HT       0.417000       1.00800           0
     20137 TIP3     921      TIP3     H2       HT       0.417000       1.00800           0
     20138 TIP3     922      TIP3     OH2      OT      -0.834000       15.9994           0
     20139 TIP3     922      TIP3     H1       HT       0.417000       1.00800           0
     20140 TIP3     922      TIP3     H2       HT       0.417000       1.00800           0
     20141 TIP3     923      TIP3     OH2      OT      -0.834000       15.9994           0
     20142 TIP3     923      TIP3     H1       HT       0.417000       1.00800           0
     20143 TIP3     923      TIP3     H2       HT       0.417000       1.00800           0
     20144 TIP3     924      TIP3     OH2      OT      -0.834000       15.9994           0
     20145 TIP3     924      TIP3     H1       HT       0.417000       1.00800           0
     20146 TIP3     924      TIP3     H2       HT       0.417000       1.00800           0
     20147 TIP3     925      TIP3     OH2      OT      -0.834000       15.9994           0
     20148 TIP3     925      TIP3     H1       HT       0.417000       1.00800           0
     20149 TIP3     925      TIP3     H2       HT       0.417000       1.00800           0
     20150 TIP3     926      TIP3     OH2      OT      -0.834000       15.9994           0
     20151 TIP3     926      TIP3     H1       HT       0.417000       1.00800           0
     20152 TIP3     926      TIP3     H2       HT       0.417000       1.00800           0
     20153 TIP3     927      TIP3     OH2      OT      -0.834000       15.9994           0
     20154 TIP3     927      TIP3     H1       HT       0.417000       1.00800           0
     20155 TIP3     927      TIP3     H2       HT       0.417000       1.00800           0
     20156 TIP3     928      TIP3     OH2      OT      -0.834000       15.9994           0
     20157 TIP3     928      TIP3     H1       HT       0.417000       1.00800           0
     20158 TIP3     928      TIP3     H2       HT       0.417000       1.00800           0
     20159 TIP3     929      TIP3     OH2      OT      -0.834000       15.9994           0
     20160 TIP3     929      TIP3     H1       HT       0.417000       1.00800           0
     20161 TIP3     929      TIP3     H2       HT       0.417000       1.00800           0
     20162 TIP3     930      TIP3     OH2      OT      -0.834000       15.9994           0
     20163 TIP3     930      TIP3     H1       HT       0.417000       1.00800           0
     20164 TIP3     930      TIP3     H2       HT       0.417000       1.00800           0
     20165 TIP3     931      TIP3     OH2      OT      -0.834000       15.9994           0
     20166 TIP3     931      TIP3     H1       HT       0.417000       1.00800           0
     20167 TIP3     931      TIP3     H2       HT       0.417000       1.00800           0
     20168 TIP3     932      TIP3     OH2      OT      -0.834000       15.9994           0
     20169 TIP3     932      TIP3     H1       HT       0.417000       1.00800           0
     20170 TIP3     932      TIP3     H2       HT       0.417000       1.00800           0
     20171 TIP3     933      TIP3     OH2      OT      -0.834000       15.9994           0
     20172 TIP3     933      TIP3     H1       HT       0.417000       1.00800           0
     20173 TIP3     933      TIP3     H2       HT       0.417000       1.00800           0
     20174 TIP3     934      TIP3     OH2      OT      -0.834000       15.9994           0
     20175 TIP3     934      TIP3     H1       HT       0.417000       1.00800           0
     20176 TIP3     934      TIP3     H2       HT       0.417000       1.00800           0
     20177 TIP3     935      TIP3     OH2      OT      -0.834000       15.9994           0
     20178 TIP3     935      TIP3     H1       HT       0.417000       1.00800           0
     20179 TIP3     935      TIP3     H2       HT       0.417000       1.00800           0
     20180 TIP3     936      TIP3     OH2      OT      -0.834000       15.9994           0
     20181 TIP3     936      TIP3     H1       HT       0.417000       1.00800           0
     20182 TIP3     936      TIP3     H2       HT       0.417000       1.00800           0
     20183 TIP3     937      TIP3     OH2      OT      -0.834000       15.9994           0
     20184 TIP3     937      TIP3     H1       HT       0.417000       1.00800           0
     20185 TIP3     937      TIP3     H2       HT       0.417000       1.00800           0
     20186 TIP3     938      TIP3     OH2      OT      -0.834000       15.9994           0
     20187 TIP3     938      TIP3     H1       HT       0.417000       1.00800           0
     20188 TIP3     938      TIP3     H2       HT       0.417000       1.00800           0
     20189 TIP3     939      TIP3     OH2      OT      -0.834000       15.9994           0
     20190 TIP3     939      TIP3     H1       HT       0.417000       1.00800           0
     20191 TIP3     939      TIP3     H2       HT       0.417000       1.00800           0
     20192 TIP3     940      TIP3     OH2      OT      -0.834000       15.9994           0
     20193 TIP3     940      TIP3     H1       HT       0.417000       1.00800           0
     20194 TIP3     940      TIP3     H2       HT       0.417000       1.00800           0
     20195 TIP3     941      TIP3     OH2      OT      -0.834000       15.9994           0
     20196 TIP3     941      TIP3     H1       HT       0.417000       1.00800           0
     20197 TIP3     941      TIP3     H2       HT       0.417000       1.00800           0
     20198 TIP3     942      TIP3     OH2      OT      -0.834000       15.9994           0
     20199 TIP3     942      TIP3     H1       HT       0.417000       1.00800           0
     20200 TIP3     942      TIP3     H2       HT       0.417000       1.00800           0
     20201 TIP3     943      TIP3     OH2      OT      -0.834000       15.9994           0
     20202 TIP3     943      TIP3     H1       HT       0.417000       1.00800           0
     20203 TIP3     943      TIP3     H2       HT       0.417000       1.00800           0
     20204 TIP3     944      TIP3     OH2      OT      -0.834000       15.9994           0
     20205 TIP3     944      TIP3     H1       HT       0.417000       1.00800           0
     20206 TIP3     944      TIP3     H2       HT       0.417000       1.00800           0
     20207 TIP3     945      TIP3     OH2      OT      -0.834000       15.9994           0
     20208 TIP3     945      TIP3     H1       HT       0.417000       1.00800           0
     20209 TIP3     945      TIP3     H2       HT       0.417000       1.00800           0
     20210 TIP3     946      TIP3     OH2      OT      -0.834000       15.9994           0
     20211 TIP3     946      TIP3     H1       HT       0.417000       1.00800           0
     20212 TIP3     946      TIP3     H2       HT       0.417000       1.00800           0
     20213 TIP3     947      TIP3     OH2      OT      -0.834000       15.9994           0
     20214 TIP3     947      TIP3     H1       HT       0.417000       1.00800           0
     20215 TIP3     947      TIP3     H2       HT       0.417000       1.00800           0
     20216 TIP3     948      TIP3     OH2      OT      -0.834000       15.9994           0
     20217 TIP3     948      TIP3     H1       HT       0.417000       1.00800           0
     20218 TIP3     948      TIP3     H2       HT       0.417000       1.00800           0
     20219 TIP3     949      TIP3     OH2      OT      -0.834000       15.9994           0
     20220 TIP3     949      TIP3     H1       HT       0.417000       1.00800           0
     20221 TIP3     949      TIP3     H2       HT       0.417000       1.00800           0
     20222 TIP3     950      TIP3     OH2      OT      -0.834000       15.9994           0
     20223 TIP3     950      TIP3     H1       HT       0.417000       1.00800           0
     20224 TIP3     950      TIP3     H2       HT       0.417000       1.00800           0
     20225 TIP3     951      TIP3     OH2      OT      -0.834000       15.9994           0
     20226 TIP3     951      TIP3     H1       HT       0.417000       1.00800           0
     20227 TIP3     951      TIP3     H2       HT       0.417000       1.00800           0
     20228 TIP3     952      TIP3     OH2      OT      -0.834000       15.9994           0
     20229 TIP3     952      TIP3     H1       HT       0.417000       1.00800           0
     20230 TIP3     952      TIP3     H2       HT       0.417000       1.00800           0
     20231 TIP3     953      TIP3     OH2      OT      -0.834000       15.9994           0
     20232 TIP3     953      TIP3     H1       HT       0.417000       1.00800           0
     20233 TIP3     953      TIP3     H2       HT       0.417000       1.00800           0
     20234 TIP3     954      TIP3     OH2      OT      -0.834000       15.9994           0
     20235 TIP3     954      TIP3     H1       HT       0.417000       1.00800           0
     20236 TIP3     954      TIP3     H2       HT       0.417000       1.00800           0
     20237 TIP3     955      TIP3     OH2      OT      -0.834000       15.9994           0
     20238 TIP3     955      TIP3     H1       HT       0.417000       1.00800           0
     20239 TIP3     955      TIP3     H2       HT       0.417000       1.00800           0
     20240 TIP3     956      TIP3     OH2      OT      -0.834000       15.9994           0
     20241 TIP3     956      TIP3     H1       HT       0.417000       1.00800           0
     20242 TIP3     956      TIP3     H2       HT       0.417000       1.00800           0
     20243 TIP3     957      TIP3     OH2      OT      -0.834000       15.9994           0
     20244 TIP3     957      TIP3     H1       HT       0.417000       1.00800           0
     20245 TIP3     957      TIP3     H2       HT       0.417000       1.00800           0
     20246 TIP3     958      TIP3     OH2      OT      -0.834000       15.9994           0
     20247 TIP3     958      TIP3     H1       HT       0.417000       1.00800           0
     20248 TIP3     958      TIP3     H2       HT       0.417000       1.00800           0
     20249 TIP3     959      TIP3     OH2      OT      -0.834000       15.9994           0
     20250 TIP3     959      TIP3     H1       HT       0.417000       1.00800           0
     20251 TIP3     959      TIP3     H2       HT       0.417000       1.00800           0
     20252 TIP3     960      TIP3     OH2      OT      -0.834000       15.9994           0
     20253 TIP3     960      TIP3     H1       HT       0.417000       1.00800           0
     20254 TIP3     960      TIP3     H2       HT       0.417000       1.00800           0
     20255 TIP3     961      TIP3     OH2      OT      -0.834000       15.9994           0
     20256 TIP3     961      TIP3     H1       HT       0.417000       1.00800           0
     20257 TIP3     961      TIP3     H2       HT       0.417000       1.00800           0
     20258 TIP3     962      TIP3     OH2      OT      -0.834000       15.9994           0
     20259 TIP3     962      TIP3     H1       HT       0.417000       1.00800           0
     20260 TIP3     962      TIP3     H2       HT       0.417000       1.00800           0
     20261 TIP3     963      TIP3     OH2      OT      -0.834000       15.9994           0
     20262 TIP3     963      TIP3     H1       HT       0.417000       1.00800           0
     20263 TIP3     963      TIP3     H2       HT       0.417000       1.00800           0
     20264 TIP3     964      TIP3     OH2      OT      -0.834000       15.9994           0
     20265 TIP3     964      TIP3     H1       HT       0.417000       1.00800           0
     20266 TIP3     964      TIP3     H2       HT       0.417000       1.00800           0
     20267 TIP3     965      TIP3     OH2      OT      -0.834000       15.9994           0
     20268 TIP3     965      TIP3     H1       HT       0.417000       1.00800           0
     20269 TIP3     965      TIP3     H2       HT       0.417000       1.00800           0
     20270 TIP3     966      TIP3     OH2      OT      -0.834000       15.9994           0
     20271 TIP3     966      TIP3     H1       HT       0.417000       1.00800           0
     20272 TIP3     966      TIP3     H2       HT       0.417000       1.00800           0
     20273 TIP3     967      TIP3     OH2      OT      -0.834000       15.9994           0
     20274 TIP3     967      TIP3     H1       HT       0.417000       1.00800           0
     20275 TIP3     967      TIP3     H2       HT       0.417000       1.00800           0
     20276 TIP3     968      TIP3     OH2      OT      -0.834000       15.9994           0
     20277 TIP3     968      TIP3     H1       HT       0.417000       1.00800           0
     20278 TIP3     968      TIP3     H2       HT       0.417000       1.00800           0
     20279 TIP3     969      TIP3     OH2      OT      -0.834000       15.9994           0
     20280 TIP3     969      TIP3     H1       HT       0.417000       1.00800           0
     20281 TIP3     969      TIP3     H2       HT       0.417000       1.00800           0
     20282 TIP3     970      TIP3     OH2      OT      -0.834000       15.9994           0
     20283 TIP3     970      TIP3     H1       HT       0.417000       1.00800           0
     20284 TIP3     970      TIP3     H2       HT       0.417000       1.00800           0
     20285 TIP3     971      TIP3     OH2      OT      -0.834000       15.9994           0
     20286 TIP3     971      TIP3     H1       HT       0.417000       1.00800           0
     20287 TIP3     971      TIP3     H2       HT       0.417000       1.00800           0
     20288 TIP3     972      TIP3     OH2      OT      -0.834000       15.9994           0
     20289 TIP3     972      TIP3     H1       HT       0.417000       1.00800           0
     20290 TIP3     972      TIP3     H2       HT       0.417000       1.00800           0
     20291 TIP3     973      TIP3     OH2      OT      -0.834000       15.9994           0
     20292 TIP3     973      TIP3     H1       HT       0.417000       1.00800           0
     20293 TIP3     973      TIP3     H2       HT       0.417000       1.00800           0
     20294 TIP3     974      TIP3     OH2      OT      -0.834000       15.9994           0
     20295 TIP3     974      TIP3     H1       HT       0.417000       1.00800           0
     20296 TIP3     974      TIP3     H2       HT       0.417000       1.00800           0
     20297 TIP3     975      TIP3     OH2      OT      -0.834000       15.9994           0
     20298 TIP3     975      TIP3     H1       HT       0.417000       1.00800           0
     20299 TIP3     975      TIP3     H2       HT       0.417000       1.00800           0
     20300 TIP3     976      TIP3     OH2      OT      -0.834000       15.9994           0
     20301 TIP3     976      TIP3     H1       HT       0.417000       1.00800           0
     20302 TIP3     976      TIP3     H2       HT       0.417000       1.00800           0
     20303 TIP3     977      TIP3     OH2      OT      -0.834000       15.9994           0
     20304 TIP3     977      TIP3     H1       HT       0.417000       1.00800           0
     20305 TIP3     977      TIP3     H2       HT       0.417000       1.00800           0
     20306 TIP3     978      TIP3     OH2      OT      -0.834000       15.9994           0
     20307 TIP3     978      TIP3     H1       HT       0.417000       1.00800           0
     20308 TIP3     978      TIP3     H2       HT       0.417000       1.00800           0
     20309 TIP3     979      TIP3     OH2      OT      -0.834000       15.9994           0
     20310 TIP3     979      TIP3     H1       HT       0.417000       1.00800           0
     20311 TIP3     979      TIP3     H2       HT       0.417000       1.00800           0
     20312 TIP3     980      TIP3     OH2      OT      -0.834000       15.9994           0
     20313 TIP3     980      TIP3     H1       HT       0.417000       1.00800           0
     20314 TIP3     980      TIP3     H2       HT       0.417000       1.00800           0
     20315 TIP3     981      TIP3     OH2      OT      -0.834000       15.9994           0
     20316 TIP3     981      TIP3     H1       HT       0.417000       1.00800           0
     20317 TIP3     981      TIP3     H2       HT       0.417000       1.00800           0
     20318 TIP3     982      TIP3     OH2      OT      -0.834000       15.9994           0
     20319 TIP3     982      TIP3     H1       HT       0.417000       1.00800           0
     20320 TIP3     982      TIP3     H2       HT       0.417000       1.00800           0
     20321 TIP3     983      TIP3     OH2      OT      -0.834000       15.9994           0
     20322 TIP3     983      TIP3     H1       HT       0.417000       1.00800           0
     20323 TIP3     983      TIP3     H2       HT       0.417000       1.00800           0
     20324 TIP3     984      TIP3     OH2      OT      -0.834000       15.9994           0
     20325 TIP3     984      TIP3     H1       HT       0.417000       1.00800           0
     20326 TIP3     984      TIP3     H2       HT       0.417000       1.00800           0
     20327 TIP3     985      TIP3     OH2      OT      -0.834000       15.9994           0
     20328 TIP3     985      TIP3     H1       HT       0.417000       1.00800           0
     20329 TIP3     985      TIP3     H2       HT       0.417000       1.00800           0
     20330 TIP3     986      TIP3     OH2      OT      -0.834000       15.9994           0
     20331 TIP3     986      TIP3     H1       HT       0.417000       1.00800           0
     20332 TIP3     986      TIP3     H2       HT       0.417000       1.00800           0
     20333 TIP3     987      TIP3     OH2      OT      -0.834000       15.9994           0
     20334 TIP3     987      TIP3     H1       HT       0.417000       1.00800           0
     20335 TIP3     987      TIP3     H2       HT       0.417000       1.00800           0
     20336 TIP3     988      TIP3     OH2      OT      -0.834000       15.9994           0
     20337 TIP3     988      TIP3     H1       HT       0.417000       1.00800           0
     20338 TIP3     988      TIP3     H2       HT       0.417000       1.00800           0
     20339 TIP3     989      TIP3     OH2      OT      -0.834000       15.9994           0
     20340 TIP3     989      TIP3     H1       HT       0.417000       1.00800           0
     20341 TIP3     989      TIP3     H2       HT       0.417000       1.00800           0
     20342 TIP3     990      TIP3     OH2      OT      -0.834000       15.9994           0
     20343 TIP3     990      TIP3     H1       HT       0.417000       1.00800           0
     20344 TIP3     990      TIP3     H2       HT       0.417000       1.00800           0
     20345 TIP3     991      TIP3     OH2      OT      -0.834000       15.9994           0
     20346 TIP3     991      TIP3     H1       HT       0.417000       1.00800           0
     20347 TIP3     991      TIP3     H2       HT       0.417000       1.00800           0
     20348 TIP3     992      TIP3     OH2      OT      -0.834000       15.9994           0
     20349 TIP3     992      TIP3     H1       HT       0.417000       1.00800           0
     20350 TIP3     992      TIP3     H2       HT       0.417000       1.00800           0
     20351 TIP3     993      TIP3     OH2      OT      -0.834000       15.9994           0
     20352 TIP3     993      TIP3     H1       HT       0.417000       1.00800           0
     20353 TIP3     993      TIP3     H2       HT       0.417000       1.00800           0
     20354 TIP3     994      TIP3     OH2      OT      -0.834000       15.9994           0
     20355 TIP3     994      TIP3     H1       HT       0.417000       1.00800           0
     20356 TIP3     994      TIP3     H2       HT       0.417000       1.00800           0
     20357 TIP3     995      TIP3     OH2      OT      -0.834000       15.9994           0
     20358 TIP3     995      TIP3     H1       HT       0.417000       1.00800           0
     20359 TIP3     995      TIP3     H2       HT       0.417000       1.00800           0
     20360 TIP3     996      TIP3     OH2      OT      -0.834000       15.9994           0
     20361 TIP3     996      TIP3     H1       HT       0.417000       1.00800           0
     20362 TIP3     996      TIP3     H2       HT       0.417000       1.00800           0
     20363 TIP3     997      TIP3     OH2      OT      -0.834000       15.9994           0
     20364 TIP3     997      TIP3     H1       HT       0.417000       1.00800           0
     20365 TIP3     997      TIP3     H2       HT       0.417000       1.00800           0
     20366 TIP3     998      TIP3     OH2      OT      -0.834000       15.9994           0
     20367 TIP3     998      TIP3     H1       HT       0.417000       1.00800           0
     20368 TIP3     998      TIP3     H2       HT       0.417000       1.00800           0
     20369 TIP3     999      TIP3     OH2      OT      -0.834000       15.9994           0
     20370 TIP3     999      TIP3     H1       HT       0.417000       1.00800           0
     20371 TIP3     999      TIP3     H2       HT       0.417000       1.00800           0
     20372 TIP3     1000     TIP3     OH2      OT      -0.834000       15.9994           0
     20373 TIP3     1000     TIP3     H1       HT       0.417000       1.00800           0
     20374 TIP3     1000     TIP3     H2       HT       0.417000       1.00800           0
     20375 TIP3     1001     TIP3     OH2      OT      -0.834000       15.9994           0
     20376 TIP3     1001     TIP3     H1       HT       0.417000       1.00800           0
     20377 TIP3     1001     TIP3     H2       HT       0.417000       1.00800           0
     20378 TIP3     1002     TIP3     OH2      OT      -0.834000       15.9994           0
     20379 TIP3     1002     TIP3     H1       HT       0.417000       1.00800           0
     20380 TIP3     1002     TIP3     H2       HT       0.417000       1.00800           0
     20381 TIP3     1003     TIP3     OH2      OT      -0.834000       15.9994           0
     20382 TIP3     1003     TIP3     H1       HT       0.417000       1.00800           0
     20383 TIP3     1003     TIP3     H2       HT       0.417000       1.00800           0
     20384 TIP3     1004     TIP3     OH2      OT      -0.834000       15.9994           0
     20385 TIP3     1004     TIP3     H1       HT       0.417000       1.00800           0
     20386 TIP3     1004     TIP3     H2       HT       0.417000       1.00800           0
     20387 TIP3     1005     TIP3     OH2      OT      -0.834000       15.9994           0
     20388 TIP3     1005     TIP3     H1       HT       0.417000       1.00800           0
     20389 TIP3     1005     TIP3     H2       HT       0.417000       1.00800           0
     20390 TIP3     1006     TIP3     OH2      OT      -0.834000       15.9994           0
     20391 TIP3     1006     TIP3     H1       HT       0.417000       1.00800           0
     20392 TIP3     1006     TIP3     H2       HT       0.417000       1.00800           0
     20393 TIP3     1007     TIP3     OH2      OT      -0.834000       15.9994           0
     20394 TIP3     1007     TIP3     H1       HT       0.417000       1.00800           0
     20395 TIP3     1007     TIP3     H2       HT       0.417000       1.00800           0
     20396 TIP3     1008     TIP3     OH2      OT      -0.834000       15.9994           0
     20397 TIP3     1008     TIP3     H1       HT       0.417000       1.00800           0
     20398 TIP3     1008     TIP3     H2       HT       0.417000       1.00800           0
     20399 TIP3     1009     TIP3     OH2      OT      -0.834000       15.9994           0
     20400 TIP3     1009     TIP3     H1       HT       0.417000       1.00800           0
     20401 TIP3     1009     TIP3     H2       HT       0.417000       1.00800           0
     20402 TIP3     1010     TIP3     OH2      OT      -0.834000       15.9994           0
     20403 TIP3     1010     TIP3     H1       HT       0.417000       1.00800           0
     20404 TIP3     1010     TIP3     H2       HT       0.417000       1.00800           0
     20405 TIP3     1011     TIP3     OH2      OT      -0.834000       15.9994           0
     20406 TIP3     1011     TIP3     H1       HT       0.417000       1.00800           0
     20407 TIP3     1011     TIP3     H2       HT       0.417000       1.00800           0
     20408 TIP3     1012     TIP3     OH2      OT      -0.834000       15.9994           0
     20409 TIP3     1012     TIP3     H1       HT       0.417000       1.00800           0
     20410 TIP3     1012     TIP3     H2       HT       0.417000       1.00800           0
     20411 TIP3     1013     TIP3     OH2      OT      -0.834000       15.9994           0
     20412 TIP3     1013     TIP3     H1       HT       0.417000       1.00800           0
     20413 TIP3     1013     TIP3     H2       HT       0.417000       1.00800           0
     20414 TIP3     1014     TIP3     OH2      OT      -0.834000       15.9994           0
     20415 TIP3     1014     TIP3     H1       HT       0.417000       1.00800           0
     20416 TIP3     1014     TIP3     H2       HT       0.417000       1.00800           0
     20417 TIP3     1015     TIP3     OH2      OT      -0.834000       15.9994           0
     20418 TIP3     1015     TIP3     H1       HT       0.417000       1.00800           0
     20419 TIP3     1015     TIP3     H2       HT       0.417000       1.00800           0
     20420 TIP3     1016     TIP3     OH2      OT      -0.834000       15.9994           0
     20421 TIP3     1016     TIP3     H1       HT       0.417000       1.00800           0
     20422 TIP3     1016     TIP3     H2       HT       0.417000       1.00800           0
     20423 TIP3     1017     TIP3     OH2      OT      -0.834000       15.9994           0
     20424 TIP3     1017     TIP3     H1       HT       0.417000       1.00800           0
     20425 TIP3     1017     TIP3     H2       HT       0.417000       1.00800           0
     20426 TIP3     1018     TIP3     OH2      OT      -0.834000       15.9994           0
     20427 TIP3     1018     TIP3     H1       HT       0.417000       1.00800           0
     20428 TIP3     1018     TIP3     H2       HT       0.417000       1.00800           0
     20429 TIP3     1019     TIP3     OH2      OT      -0.834000       15.9994           0
     20430 TIP3     1019     TIP3     H1       HT       0.417000       1.00800           0
     20431 TIP3     1019     TIP3     H2       HT       0.417000       1.00800           0
     20432 TIP3     1020     TIP3     OH2      OT      -0.834000       15.9994           0
     20433 TIP3     1020     TIP3     H1       HT       0.417000       1.00800           0
     20434 TIP3     1020     TIP3     H2       HT       0.417000       1.00800           0
     20435 TIP3     1021     TIP3     OH2      OT      -0.834000       15.9994           0
     20436 TIP3     1021     TIP3     H1       HT       0.417000       1.00800           0
     20437 TIP3     1021     TIP3     H2       HT       0.417000       1.00800           0
     20438 TIP3     1022     TIP3     OH2      OT      -0.834000       15.9994           0
     20439 TIP3     1022     TIP3     H1       HT       0.417000       1.00800           0
     20440 TIP3     1022     TIP3     H2       HT       0.417000       1.00800           0
     20441 TIP3     1023     TIP3     OH2      OT      -0.834000       15.9994           0
     20442 TIP3     1023     TIP3     H1       HT       0.417000       1.00800           0
     20443 TIP3     1023     TIP3     H2       HT       0.417000       1.00800           0
     20444 TIP3     1024     TIP3     OH2      OT      -0.834000       15.9994           0
     20445 TIP3     1024     TIP3     H1       HT       0.417000       1.00800           0
     20446 TIP3     1024     TIP3     H2       HT       0.417000       1.00800           0
     20447 TIP3     1025     TIP3     OH2      OT      -0.834000       15.9994           0
     20448 TIP3     1025     TIP3     H1       HT       0.417000       1.00800           0
     20449 TIP3     1025     TIP3     H2       HT       0.417000       1.00800           0
     20450 TIP3     1026     TIP3     OH2      OT      -0.834000       15.9994           0
     20451 TIP3     1026     TIP3     H1       HT       0.417000       1.00800           0
     20452 TIP3     1026     TIP3     H2       HT       0.417000       1.00800           0
     20453 TIP3     1027     TIP3     OH2      OT      -0.834000       15.9994           0
     20454 TIP3     1027     TIP3     H1       HT       0.417000       1.00800           0
     20455 TIP3     1027     TIP3     H2       HT       0.417000       1.00800           0
     20456 TIP3     1028     TIP3     OH2      OT      -0.834000       15.9994           0
     20457 TIP3     1028     TIP3     H1       HT       0.417000       1.00800           0
     20458 TIP3     1028     TIP3     H2       HT       0.417000       1.00800           0
     20459 TIP3     1029     TIP3     OH2      OT      -0.834000       15.9994           0
     20460 TIP3     1029     TIP3     H1       HT       0.417000       1.00800           0
     20461 TIP3     1029     TIP3     H2       HT       0.417000       1.00800           0
     20462 TIP3     1030     TIP3     OH2      OT      -0.834000       15.9994           0
     20463 TIP3     1030     TIP3     H1       HT       0.417000       1.00800           0
     20464 TIP3     1030     TIP3     H2       HT       0.417000       1.00800           0
     20465 TIP3     1031     TIP3     OH2      OT      -0.834000       15.9994           0
     20466 TIP3     1031     TIP3     H1       HT       0.417000       1.00800           0
     20467 TIP3     1031     TIP3     H2       HT       0.417000       1.00800           0
     20468 TIP3     1032     TIP3     OH2      OT      -0.834000       15.9994           0
     20469 TIP3     1032     TIP3     H1       HT       0.417000       1.00800           0
     20470 TIP3     1032     TIP3     H2       HT       0.417000       1.00800           0
     20471 TIP3     1033     TIP3     OH2      OT      -0.834000       15.9994           0
     20472 TIP3     1033     TIP3     H1       HT       0.417000       1.00800           0
     20473 TIP3     1033     TIP3     H2       HT       0.417000       1.00800           0
     20474 TIP3     1034     TIP3     OH2      OT      -0.834000       15.9994           0
     20475 TIP3     1034     TIP3     H1       HT       0.417000       1.00800           0
     20476 TIP3     1034     TIP3     H2       HT       0.417000       1.00800           0
     20477 TIP3     1035     TIP3     OH2      OT      -0.834000       15.9994           0
     20478 TIP3     1035     TIP3     H1       HT       0.417000       1.00800           0
     20479 TIP3     1035     TIP3     H2       HT       0.417000       1.00800           0
     20480 TIP3     1036     TIP3     OH2      OT      -0.834000       15.9994           0
     20481 TIP3     1036     TIP3     H1       HT       0.417000       1.00800           0
     20482 TIP3     1036     TIP3     H2       HT       0.417000       1.00800           0
     20483 TIP3     1037     TIP3     OH2      OT      -0.834000       15.9994           0
     20484 TIP3     1037     TIP3     H1       HT       0.417000       1.00800           0
     20485 TIP3     1037     TIP3     H2       HT       0.417000       1.00800           0
     20486 TIP3     1038     TIP3     OH2      OT      -0.834000       15.9994           0
     20487 TIP3     1038     TIP3     H1       HT       0.417000       1.00800           0
     20488 TIP3     1038     TIP3     H2       HT       0.417000       1.00800           0
     20489 TIP3     1039     TIP3     OH2      OT      -0.834000       15.9994           0
     20490 TIP3     1039     TIP3     H1       HT       0.417000       1.00800           0
     20491 TIP3     1039     TIP3     H2       HT       0.417000       1.00800           0
     20492 TIP3     1040     TIP3     OH2      OT      -0.834000       15.9994           0
     20493 TIP3     1040     TIP3     H1       HT       0.417000       1.00800           0
     20494 TIP3     1040     TIP3     H2       HT       0.417000       1.00800           0
     20495 TIP3     1041     TIP3     OH2      OT      -0.834000       15.9994           0
     20496 TIP3     1041     TIP3     H1       HT       0.417000       1.00800           0
     20497 TIP3     1041     TIP3     H2       HT       0.417000       1.00800           0
     20498 TIP3     1042     TIP3     OH2      OT      -0.834000       15.9994           0
     20499 TIP3     1042     TIP3     H1       HT       0.417000       1.00800           0
     20500 TIP3     1042     TIP3     H2       HT       0.417000       1.00800           0
     20501 TIP3     1043     TIP3     OH2      OT      -0.834000       15.9994           0
     20502 TIP3     1043     TIP3     H1       HT       0.417000       1.00800           0
     20503 TIP3     1043     TIP3     H2       HT       0.417000       1.00800           0
     20504 TIP3     1044     TIP3     OH2      OT      -0.834000       15.9994           0
     20505 TIP3     1044     TIP3     H1       HT       0.417000       1.00800           0
     20506 TIP3     1044     TIP3     H2       HT       0.417000       1.00800           0
     20507 TIP3     1045     TIP3     OH2      OT      -0.834000       15.9994           0
     20508 TIP3     1045     TIP3     H1       HT       0.417000       1.00800           0
     20509 TIP3     1045     TIP3     H2       HT       0.417000       1.00800           0
     20510 TIP3     1046     TIP3     OH2      OT      -0.834000       15.9994           0
     20511 TIP3     1046     TIP3     H1       HT       0.417000       1.00800           0
     20512 TIP3     1046     TIP3     H2       HT       0.417000       1.00800           0
     20513 TIP3     1047     TIP3     OH2      OT      -0.834000       15.9994           0
     20514 TIP3     1047     TIP3     H1       HT       0.417000       1.00800           0
     20515 TIP3     1047     TIP3     H2       HT       0.417000       1.00800           0
     20516 TIP3     1048     TIP3     OH2      OT      -0.834000       15.9994           0
     20517 TIP3     1048     TIP3     H1       HT       0.417000       1.00800           0
     20518 TIP3     1048     TIP3     H2       HT       0.417000       1.00800           0
     20519 TIP3     1049     TIP3     OH2      OT      -0.834000       15.9994           0
     20520 TIP3     1049     TIP3     H1       HT       0.417000       1.00800           0
     20521 TIP3     1049     TIP3     H2       HT       0.417000       1.00800           0
     20522 TIP3     1050     TIP3     OH2      OT      -0.834000       15.9994           0
     20523 TIP3     1050     TIP3     H1       HT       0.417000       1.00800           0
     20524 TIP3     1050     TIP3     H2       HT       0.417000       1.00800           0
     20525 TIP3     1051     TIP3     OH2      OT      -0.834000       15.9994           0
     20526 TIP3     1051     TIP3     H1       HT       0.417000       1.00800           0
     20527 TIP3     1051     TIP3     H2       HT       0.417000       1.00800           0
     20528 TIP3     1052     TIP3     OH2      OT      -0.834000       15.9994           0
     20529 TIP3     1052     TIP3     H1       HT       0.417000       1.00800           0
     20530 TIP3     1052     TIP3     H2       HT       0.417000       1.00800           0
     20531 TIP3     1053     TIP3     OH2      OT      -0.834000       15.9994           0
     20532 TIP3     1053     TIP3     H1       HT       0.417000       1.00800           0
     20533 TIP3     1053     TIP3     H2       HT       0.417000       1.00800           0
     20534 TIP3     1054     TIP3     OH2      OT      -0.834000       15.9994           0
     20535 TIP3     1054     TIP3     H1       HT       0.417000       1.00800           0
     20536 TIP3     1054     TIP3     H2       HT       0.417000       1.00800           0
     20537 TIP3     1055     TIP3     OH2      OT      -0.834000       15.9994           0
     20538 TIP3     1055     TIP3     H1       HT       0.417000       1.00800           0
     20539 TIP3     1055     TIP3     H2       HT       0.417000       1.00800           0
     20540 TIP3     1056     TIP3     OH2      OT      -0.834000       15.9994           0
     20541 TIP3     1056     TIP3     H1       HT       0.417000       1.00800           0
     20542 TIP3     1056     TIP3     H2       HT       0.417000       1.00800           0
     20543 TIP3     1057     TIP3     OH2      OT      -0.834000       15.9994           0
     20544 TIP3     1057     TIP3     H1       HT       0.417000       1.00800           0
     20545 TIP3     1057     TIP3     H2       HT       0.417000       1.00800           0
     20546 TIP3     1058     TIP3     OH2      OT      -0.834000       15.9994           0
     20547 TIP3     1058     TIP3     H1       HT       0.417000       1.00800           0
     20548 TIP3     1058     TIP3     H2       HT       0.417000       1.00800           0
     20549 TIP3     1059     TIP3     OH2      OT      -0.834000       15.9994           0
     20550 TIP3     1059     TIP3     H1       HT       0.417000       1.00800           0
     20551 TIP3     1059     TIP3     H2       HT       0.417000       1.00800           0
     20552 TIP3     1060     TIP3     OH2      OT      -0.834000       15.9994           0
     20553 TIP3     1060     TIP3     H1       HT       0.417000       1.00800           0
     20554 TIP3     1060     TIP3     H2       HT       0.417000       1.00800           0
     20555 TIP3     1061     TIP3     OH2      OT      -0.834000       15.9994           0
     20556 TIP3     1061     TIP3     H1       HT       0.417000       1.00800           0
     20557 TIP3     1061     TIP3     H2       HT       0.417000       1.00800           0
     20558 TIP3     1062     TIP3     OH2      OT      -0.834000       15.9994           0
     20559 TIP3     1062     TIP3     H1       HT       0.417000       1.00800           0
     20560 TIP3     1062     TIP3     H2       HT       0.417000       1.00800           0
     20561 TIP3     1063     TIP3     OH2      OT      -0.834000       15.9994           0
     20562 TIP3     1063     TIP3     H1       HT       0.417000       1.00800           0
     20563 TIP3     1063     TIP3     H2       HT       0.417000       1.00800           0
     20564 TIP3     1064     TIP3     OH2      OT      -0.834000       15.9994           0
     20565 TIP3     1064     TIP3     H1       HT       0.417000       1.00800           0
     20566 TIP3     1064     TIP3     H2       HT       0.417000       1.00800           0
     20567 TIP3     1065     TIP3     OH2      OT      -0.834000       15.9994           0
     20568 TIP3     1065     TIP3     H1       HT       0.417000       1.00800           0
     20569 TIP3     1065     TIP3     H2       HT       0.417000       1.00800           0
     20570 TIP3     1066     TIP3     OH2      OT      -0.834000       15.9994           0
     20571 TIP3     1066     TIP3     H1       HT       0.417000       1.00800           0
     20572 TIP3     1066     TIP3     H2       HT       0.417000       1.00800           0
     20573 TIP3     1067     TIP3     OH2      OT      -0.834000       15.9994           0
     20574 TIP3     1067     TIP3     H1       HT       0.417000       1.00800           0
     20575 TIP3     1067     TIP3     H2       HT       0.417000       1.00800           0
     20576 TIP3     1068     TIP3     OH2      OT      -0.834000       15.9994           0
     20577 TIP3     1068     TIP3     H1       HT       0.417000       1.00800           0
     20578 TIP3     1068     TIP3     H2       HT       0.417000       1.00800           0
     20579 TIP3     1069     TIP3     OH2      OT      -0.834000       15.9994           0
     20580 TIP3     1069     TIP3     H1       HT       0.417000       1.00800           0
     20581 TIP3     1069     TIP3     H2       HT       0.417000       1.00800           0
     20582 TIP3     1070     TIP3     OH2      OT      -0.834000       15.9994           0
     20583 TIP3     1070     TIP3     H1       HT       0.417000       1.00800           0
     20584 TIP3     1070     TIP3     H2       HT       0.417000       1.00800           0
     20585 TIP3     1071     TIP3     OH2      OT      -0.834000       15.9994           0
     20586 TIP3     1071     TIP3     H1       HT       0.417000       1.00800           0
     20587 TIP3     1071     TIP3     H2       HT       0.417000       1.00800           0
     20588 TIP3     1072     TIP3     OH2      OT      -0.834000       15.9994           0
     20589 TIP3     1072     TIP3     H1       HT       0.417000       1.00800           0
     20590 TIP3     1072     TIP3     H2       HT       0.417000       1.00800           0
     20591 TIP3     1073     TIP3     OH2      OT      -0.834000       15.9994           0
     20592 TIP3     1073     TIP3     H1       HT       0.417000       1.00800           0
     20593 TIP3     1073     TIP3     H2       HT       0.417000       1.00800           0
     20594 TIP3     1074     TIP3     OH2      OT      -0.834000       15.9994           0
     20595 TIP3     1074     TIP3     H1       HT       0.417000       1.00800           0
     20596 TIP3     1074     TIP3     H2       HT       0.417000       1.00800           0
     20597 TIP3     1075     TIP3     OH2      OT      -0.834000       15.9994           0
     20598 TIP3     1075     TIP3     H1       HT       0.417000       1.00800           0
     20599 TIP3     1075     TIP3     H2       HT       0.417000       1.00800           0
     20600 TIP3     1076     TIP3     OH2      OT      -0.834000       15.9994           0
     20601 TIP3     1076     TIP3     H1       HT       0.417000       1.00800           0
     20602 TIP3     1076     TIP3     H2       HT       0.417000       1.00800           0
     20603 TIP3     1077     TIP3     OH2      OT      -0.834000       15.9994           0
     20604 TIP3     1077     TIP3     H1       HT       0.417000       1.00800           0
     20605 TIP3     1077     TIP3     H2       HT       0.417000       1.00800           0
     20606 TIP3     1078     TIP3     OH2      OT      -0.834000       15.9994           0
     20607 TIP3     1078     TIP3     H1       HT       0.417000       1.00800           0
     20608 TIP3     1078     TIP3     H2       HT       0.417000       1.00800           0
     20609 TIP3     1079     TIP3     OH2      OT      -0.834000       15.9994           0
     20610 TIP3     1079     TIP3     H1       HT       0.417000       1.00800           0
     20611 TIP3     1079     TIP3     H2       HT       0.417000       1.00800           0
     20612 TIP3     1080     TIP3     OH2      OT      -0.834000       15.9994           0
     20613 TIP3     1080     TIP3     H1       HT       0.417000       1.00800           0
     20614 TIP3     1080     TIP3     H2       HT       0.417000       1.00800           0
     20615 TIP3     1081     TIP3     OH2      OT      -0.834000       15.9994           0
     20616 TIP3     1081     TIP3     H1       HT       0.417000       1.00800           0
     20617 TIP3     1081     TIP3     H2       HT       0.417000       1.00800           0
     20618 TIP3     1082     TIP3     OH2      OT      -0.834000       15.9994           0
     20619 TIP3     1082     TIP3     H1       HT       0.417000       1.00800           0
     20620 TIP3     1082     TIP3     H2       HT       0.417000       1.00800           0
     20621 TIP3     1083     TIP3     OH2      OT      -0.834000       15.9994           0
     20622 TIP3     1083     TIP3     H1       HT       0.417000       1.00800           0
     20623 TIP3     1083     TIP3     H2       HT       0.417000       1.00800           0
     20624 TIP3     1084     TIP3     OH2      OT      -0.834000       15.9994           0
     20625 TIP3     1084     TIP3     H1       HT       0.417000       1.00800           0
     20626 TIP3     1084     TIP3     H2       HT       0.417000       1.00800           0
     20627 TIP3     1085     TIP3     OH2      OT      -0.834000       15.9994           0
     20628 TIP3     1085     TIP3     H1       HT       0.417000       1.00800           0
     20629 TIP3     1085     TIP3     H2       HT       0.417000       1.00800           0
     20630 TIP3     1086     TIP3     OH2      OT      -0.834000       15.9994           0
     20631 TIP3     1086     TIP3     H1       HT       0.417000       1.00800           0
     20632 TIP3     1086     TIP3     H2       HT       0.417000       1.00800           0
     20633 TIP3     1087     TIP3     OH2      OT      -0.834000       15.9994           0
     20634 TIP3     1087     TIP3     H1       HT       0.417000       1.00800           0
     20635 TIP3     1087     TIP3     H2       HT       0.417000       1.00800           0
     20636 TIP3     1088     TIP3     OH2      OT      -0.834000       15.9994           0
     20637 TIP3     1088     TIP3     H1       HT       0.417000       1.00800           0
     20638 TIP3     1088     TIP3     H2       HT       0.417000       1.00800           0
     20639 TIP3     1089     TIP3     OH2      OT      -0.834000       15.9994           0
     20640 TIP3     1089     TIP3     H1       HT       0.417000       1.00800           0
     20641 TIP3     1089     TIP3     H2       HT       0.417000       1.00800           0
     20642 TIP3     1090     TIP3     OH2      OT      -0.834000       15.9994           0
     20643 TIP3     1090     TIP3     H1       HT       0.417000       1.00800           0
     20644 TIP3     1090     TIP3     H2       HT       0.417000       1.00800           0
     20645 TIP3     1091     TIP3     OH2      OT      -0.834000       15.9994           0
     20646 TIP3     1091     TIP3     H1       HT       0.417000       1.00800           0
     20647 TIP3     1091     TIP3     H2       HT       0.417000       1.00800           0
     20648 TIP3     1092     TIP3     OH2      OT      -0.834000       15.9994           0
     20649 TIP3     1092     TIP3     H1       HT       0.417000       1.00800           0
     20650 TIP3     1092     TIP3     H2       HT       0.417000       1.00800           0
     20651 TIP3     1093     TIP3     OH2      OT      -0.834000       15.9994           0
     20652 TIP3     1093     TIP3     H1       HT       0.417000       1.00800           0
     20653 TIP3     1093     TIP3     H2       HT       0.417000       1.00800           0
     20654 TIP3     1094     TIP3     OH2      OT      -0.834000       15.9994           0
     20655 TIP3     1094     TIP3     H1       HT       0.417000       1.00800           0
     20656 TIP3     1094     TIP3     H2       HT       0.417000       1.00800           0
     20657 TIP3     1095     TIP3     OH2      OT      -0.834000       15.9994           0
     20658 TIP3     1095     TIP3     H1       HT       0.417000       1.00800           0
     20659 TIP3     1095     TIP3     H2       HT       0.417000       1.00800           0
     20660 TIP3     1096     TIP3     OH2      OT      -0.834000       15.9994           0
     20661 TIP3     1096     TIP3     H1       HT       0.417000       1.00800           0
     20662 TIP3     1096     TIP3     H2       HT       0.417000       1.00800           0
     20663 TIP3     1097     TIP3     OH2      OT      -0.834000       15.9994           0
     20664 TIP3     1097     TIP3     H1       HT       0.417000       1.00800           0
     20665 TIP3     1097     TIP3     H2       HT       0.417000       1.00800           0
     20666 TIP3     1098     TIP3     OH2      OT      -0.834000       15.9994           0
     20667 TIP3     1098     TIP3     H1       HT       0.417000       1.00800           0
     20668 TIP3     1098     TIP3     H2       HT       0.417000       1.00800           0
     20669 TIP3     1099     TIP3     OH2      OT      -0.834000       15.9994           0
     20670 TIP3     1099     TIP3     H1       HT       0.417000       1.00800           0
     20671 TIP3     1099     TIP3     H2       HT       0.417000       1.00800           0
     20672 TIP3     1100     TIP3     OH2      OT      -0.834000       15.9994           0
     20673 TIP3     1100     TIP3     H1       HT       0.417000       1.00800           0
     20674 TIP3     1100     TIP3     H2       HT       0.417000       1.00800           0
     20675 TIP3     1101     TIP3     OH2      OT      -0.834000       15.9994           0
     20676 TIP3     1101     TIP3     H1       HT       0.417000       1.00800           0
     20677 TIP3     1101     TIP3     H2       HT       0.417000       1.00800           0
     20678 TIP3     1102     TIP3     OH2      OT      -0.834000       15.9994           0
     20679 TIP3     1102     TIP3     H1       HT       0.417000       1.00800           0
     20680 TIP3     1102     TIP3     H2       HT       0.417000       1.00800           0
     20681 TIP3     1103     TIP3     OH2      OT      -0.834000       15.9994           0
     20682 TIP3     1103     TIP3     H1       HT       0.417000       1.00800           0
     20683 TIP3     1103     TIP3     H2       HT       0.417000       1.00800           0
     20684 TIP3     1104     TIP3     OH2      OT      -0.834000       15.9994           0
     20685 TIP3     1104     TIP3     H1       HT       0.417000       1.00800           0
     20686 TIP3     1104     TIP3     H2       HT       0.417000       1.00800           0
     20687 TIP3     1105     TIP3     OH2      OT      -0.834000       15.9994           0
     20688 TIP3     1105     TIP3     H1       HT       0.417000       1.00800           0
     20689 TIP3     1105     TIP3     H2       HT       0.417000       1.00800           0
     20690 TIP3     1106     TIP3     OH2      OT      -0.834000       15.9994           0
     20691 TIP3     1106     TIP3     H1       HT       0.417000       1.00800           0
     20692 TIP3     1106     TIP3     H2       HT       0.417000       1.00800           0
     20693 TIP3     1107     TIP3     OH2      OT      -0.834000       15.9994           0
     20694 TIP3     1107     TIP3     H1       HT       0.417000       1.00800           0
     20695 TIP3     1107     TIP3     H2       HT       0.417000       1.00800           0
     20696 TIP3     1108     TIP3     OH2      OT      -0.834000       15.9994           0
     20697 TIP3     1108     TIP3     H1       HT       0.417000       1.00800           0
     20698 TIP3     1108     TIP3     H2       HT       0.417000       1.00800           0
     20699 TIP3     1109     TIP3     OH2      OT      -0.834000       15.9994           0
     20700 TIP3     1109     TIP3     H1       HT       0.417000       1.00800           0
     20701 TIP3     1109     TIP3     H2       HT       0.417000       1.00800           0
     20702 TIP3     1110     TIP3     OH2      OT      -0.834000       15.9994           0
     20703 TIP3     1110     TIP3     H1       HT       0.417000       1.00800           0
     20704 TIP3     1110     TIP3     H2       HT       0.417000       1.00800           0
     20705 TIP3     1111     TIP3     OH2      OT      -0.834000       15.9994           0
     20706 TIP3     1111     TIP3     H1       HT       0.417000       1.00800           0
     20707 TIP3     1111     TIP3     H2       HT       0.417000       1.00800           0
     20708 TIP3     1112     TIP3     OH2      OT      -0.834000       15.9994           0
     20709 TIP3     1112     TIP3     H1       HT       0.417000       1.00800           0
     20710 TIP3     1112     TIP3     H2       HT       0.417000       1.00800           0
     20711 TIP3     1113     TIP3     OH2      OT      -0.834000       15.9994           0
     20712 TIP3     1113     TIP3     H1       HT       0.417000       1.00800           0
     20713 TIP3     1113     TIP3     H2       HT       0.417000       1.00800           0
     20714 TIP3     1114     TIP3     OH2      OT      -0.834000       15.9994           0
     20715 TIP3     1114     TIP3     H1       HT       0.417000       1.00800           0
     20716 TIP3     1114     TIP3     H2       HT       0.417000       1.00800           0
     20717 TIP3     1115     TIP3     OH2      OT      -0.834000       15.9994           0
     20718 TIP3     1115     TIP3     H1       HT       0.417000       1.00800           0
     20719 TIP3     1115     TIP3     H2       HT       0.417000       1.00800           0
     20720 TIP3     1116     TIP3     OH2      OT      -0.834000       15.9994           0
     20721 TIP3     1116     TIP3     H1       HT       0.417000       1.00800           0
     20722 TIP3     1116     TIP3     H2       HT       0.417000       1.00800           0
     20723 TIP3     1117     TIP3     OH2      OT      -0.834000       15.9994           0
     20724 TIP3     1117     TIP3     H1       HT       0.417000       1.00800           0
     20725 TIP3     1117     TIP3     H2       HT       0.417000       1.00800           0
     20726 TIP3     1118     TIP3     OH2      OT      -0.834000       15.9994           0
     20727 TIP3     1118     TIP3     H1       HT       0.417000       1.00800           0
     20728 TIP3     1118     TIP3     H2       HT       0.417000       1.00800           0
     20729 TIP3     1119     TIP3     OH2      OT      -0.834000       15.9994           0
     20730 TIP3     1119     TIP3     H1       HT       0.417000       1.00800           0
     20731 TIP3     1119     TIP3     H2       HT       0.417000       1.00800           0
     20732 TIP3     1120     TIP3     OH2      OT      -0.834000       15.9994           0
     20733 TIP3     1120     TIP3     H1       HT       0.417000       1.00800           0
     20734 TIP3     1120     TIP3     H2       HT       0.417000       1.00800           0
     20735 TIP3     1121     TIP3     OH2      OT      -0.834000       15.9994           0
     20736 TIP3     1121     TIP3     H1       HT       0.417000       1.00800           0
     20737 TIP3     1121     TIP3     H2       HT       0.417000       1.00800           0
     20738 TIP3     1122     TIP3     OH2      OT      -0.834000       15.9994           0
     20739 TIP3     1122     TIP3     H1       HT       0.417000       1.00800           0
     20740 TIP3     1122     TIP3     H2       HT       0.417000       1.00800           0
     20741 TIP3     1123     TIP3     OH2      OT      -0.834000       15.9994           0
     20742 TIP3     1123     TIP3     H1       HT       0.417000       1.00800           0
     20743 TIP3     1123     TIP3     H2       HT       0.417000       1.00800           0
     20744 TIP3     1124     TIP3     OH2      OT      -0.834000       15.9994           0
     20745 TIP3     1124     TIP3     H1       HT       0.417000       1.00800           0
     20746 TIP3     1124     TIP3     H2       HT       0.417000       1.00800           0
     20747 TIP3     1125     TIP3     OH2      OT      -0.834000       15.9994           0
     20748 TIP3     1125     TIP3     H1       HT       0.417000       1.00800           0
     20749 TIP3     1125     TIP3     H2       HT       0.417000       1.00800           0
     20750 TIP3     1126     TIP3     OH2      OT      -0.834000       15.9994           0
     20751 TIP3     1126     TIP3     H1       HT       0.417000       1.00800           0
     20752 TIP3     1126     TIP3     H2       HT       0.417000       1.00800           0
     20753 TIP3     1127     TIP3     OH2      OT      -0.834000       15.9994           0
     20754 TIP3     1127     TIP3     H1       HT       0.417000       1.00800           0
     20755 TIP3     1127     TIP3     H2       HT       0.417000       1.00800           0
     20756 TIP3     1128     TIP3     OH2      OT      -0.834000       15.9994           0
     20757 TIP3     1128     TIP3     H1       HT       0.417000       1.00800           0
     20758 TIP3     1128     TIP3     H2       HT       0.417000       1.00800           0
     20759 TIP3     1129     TIP3     OH2      OT      -0.834000       15.9994           0
     20760 TIP3     1129     TIP3     H1       HT       0.417000       1.00800           0
     20761 TIP3     1129     TIP3     H2       HT       0.417000       1.00800           0
     20762 TIP3     1130     TIP3     OH2      OT      -0.834000       15.9994           0
     20763 TIP3     1130     TIP3     H1       HT       0.417000       1.00800           0
     20764 TIP3     1130     TIP3     H2       HT       0.417000       1.00800           0
     20765 TIP3     1131     TIP3     OH2      OT      -0.834000       15.9994           0
     20766 TIP3     1131     TIP3     H1       HT       0.417000       1.00800           0
     20767 TIP3     1131     TIP3     H2       HT       0.417000       1.00800           0
     20768 TIP3     1132     TIP3     OH2      OT      -0.834000       15.9994           0
     20769 TIP3     1132     TIP3     H1       HT       0.417000       1.00800           0
     20770 TIP3     1132     TIP3     H2       HT       0.417000       1.00800           0
     20771 TIP3     1133     TIP3     OH2      OT      -0.834000       15.9994           0
     20772 TIP3     1133     TIP3     H1       HT       0.417000       1.00800           0
     20773 TIP3     1133     TIP3     H2       HT       0.417000       1.00800           0
     20774 TIP3     1134     TIP3     OH2      OT      -0.834000       15.9994           0
     20775 TIP3     1134     TIP3     H1       HT       0.417000       1.00800           0
     20776 TIP3     1134     TIP3     H2       HT       0.417000       1.00800           0
     20777 TIP3     1135     TIP3     OH2      OT      -0.834000       15.9994           0
     20778 TIP3     1135     TIP3     H1       HT       0.417000       1.00800           0
     20779 TIP3     1135     TIP3     H2       HT       0.417000       1.00800           0
     20780 TIP3     1136     TIP3     OH2      OT      -0.834000       15.9994           0
     20781 TIP3     1136     TIP3     H1       HT       0.417000       1.00800           0
     20782 TIP3     1136     TIP3     H2       HT       0.417000       1.00800           0
     20783 TIP3     1137     TIP3     OH2      OT      -0.834000       15.9994           0
     20784 TIP3     1137     TIP3     H1       HT       0.417000       1.00800           0
     20785 TIP3     1137     TIP3     H2       HT       0.417000       1.00800           0
     20786 TIP3     1138     TIP3     OH2      OT      -0.834000       15.9994           0
     20787 TIP3     1138     TIP3     H1       HT       0.417000       1.00800           0
     20788 TIP3     1138     TIP3     H2       HT       0.417000       1.00800           0
     20789 TIP3     1139     TIP3     OH2      OT      -0.834000       15.9994           0
     20790 TIP3     1139     TIP3     H1       HT       0.417000       1.00800           0
     20791 TIP3     1139     TIP3     H2       HT       0.417000       1.00800           0
     20792 TIP3     1140     TIP3     OH2      OT      -0.834000       15.9994           0
     20793 TIP3     1140     TIP3     H1       HT       0.417000       1.00800           0
     20794 TIP3     1140     TIP3     H2       HT       0.417000       1.00800           0
     20795 TIP3     1141     TIP3     OH2      OT      -0.834000       15.9994           0
     20796 TIP3     1141     TIP3     H1       HT       0.417000       1.00800           0
     20797 TIP3     1141     TIP3     H2       HT       0.417000       1.00800           0
     20798 TIP3     1142     TIP3     OH2      OT      -0.834000       15.9994           0
     20799 TIP3     1142     TIP3     H1       HT       0.417000       1.00800           0
     20800 TIP3     1142     TIP3     H2       HT       0.417000       1.00800           0
     20801 TIP3     1143     TIP3     OH2      OT      -0.834000       15.9994           0
     20802 TIP3     1143     TIP3     H1       HT       0.417000       1.00800           0
     20803 TIP3     1143     TIP3     H2       HT       0.417000       1.00800           0
     20804 TIP3     1144     TIP3     OH2      OT      -0.834000       15.9994           0
     20805 TIP3     1144     TIP3     H1       HT       0.417000       1.00800           0
     20806 TIP3     1144     TIP3     H2       HT       0.417000       1.00800           0
     20807 TIP3     1145     TIP3     OH2      OT      -0.834000       15.9994           0
     20808 TIP3     1145     TIP3     H1       HT       0.417000       1.00800           0
     20809 TIP3     1145     TIP3     H2       HT       0.417000       1.00800           0
     20810 TIP3     1146     TIP3     OH2      OT      -0.834000       15.9994           0
     20811 TIP3     1146     TIP3     H1       HT       0.417000       1.00800           0
     20812 TIP3     1146     TIP3     H2       HT       0.417000       1.00800           0
     20813 TIP3     1147     TIP3     OH2      OT      -0.834000       15.9994           0
     20814 TIP3     1147     TIP3     H1       HT       0.417000       1.00800           0
     20815 TIP3     1147     TIP3     H2       HT       0.417000       1.00800           0
     20816 TIP3     1148     TIP3     OH2      OT      -0.834000       15.9994           0
     20817 TIP3     1148     TIP3     H1       HT       0.417000       1.00800           0
     20818 TIP3     1148     TIP3     H2       HT       0.417000       1.00800           0
     20819 TIP3     1149     TIP3     OH2      OT      -0.834000       15.9994           0
     20820 TIP3     1149     TIP3     H1       HT       0.417000       1.00800           0
     20821 TIP3     1149     TIP3     H2       HT       0.417000       1.00800           0
     20822 TIP3     1150     TIP3     OH2      OT      -0.834000       15.9994           0
     20823 TIP3     1150     TIP3     H1       HT       0.417000       1.00800           0
     20824 TIP3     1150     TIP3     H2       HT       0.417000       1.00800           0
     20825 TIP3     1151     TIP3     OH2      OT      -0.834000       15.9994           0
     20826 TIP3     1151     TIP3     H1       HT       0.417000       1.00800           0
     20827 TIP3     1151     TIP3     H2       HT       0.417000       1.00800           0
     20828 TIP3     1152     TIP3     OH2      OT      -0.834000       15.9994           0
     20829 TIP3     1152     TIP3     H1       HT       0.417000       1.00800           0
     20830 TIP3     1152     TIP3     H2       HT       0.417000       1.00800           0
     20831 TIP3     1153     TIP3     OH2      OT      -0.834000       15.9994           0
     20832 TIP3     1153     TIP3     H1       HT       0.417000       1.00800           0
     20833 TIP3     1153     TIP3     H2       HT       0.417000       1.00800           0
     20834 TIP3     1154     TIP3     OH2      OT      -0.834000       15.9994           0
     20835 TIP3     1154     TIP3     H1       HT       0.417000       1.00800           0
     20836 TIP3     1154     TIP3     H2       HT       0.417000       1.00800           0
     20837 TIP3     1155     TIP3     OH2      OT      -0.834000       15.9994           0
     20838 TIP3     1155     TIP3     H1       HT       0.417000       1.00800           0
     20839 TIP3     1155     TIP3     H2       HT       0.417000       1.00800           0
     20840 TIP3     1156     TIP3     OH2      OT      -0.834000       15.9994           0
     20841 TIP3     1156     TIP3     H1       HT       0.417000       1.00800           0
     20842 TIP3     1156     TIP3     H2       HT       0.417000       1.00800           0
     20843 TIP3     1157     TIP3     OH2      OT      -0.834000       15.9994           0
     20844 TIP3     1157     TIP3     H1       HT       0.417000       1.00800           0
     20845 TIP3     1157     TIP3     H2       HT       0.417000       1.00800           0
     20846 TIP3     1158     TIP3     OH2      OT      -0.834000       15.9994           0
     20847 TIP3     1158     TIP3     H1       HT       0.417000       1.00800           0
     20848 TIP3     1158     TIP3     H2       HT       0.417000       1.00800           0
     20849 TIP3     1159     TIP3     OH2      OT      -0.834000       15.9994           0
     20850 TIP3     1159     TIP3     H1       HT       0.417000       1.00800           0
     20851 TIP3     1159     TIP3     H2       HT       0.417000       1.00800           0
     20852 TIP3     1160     TIP3     OH2      OT      -0.834000       15.9994           0
     20853 TIP3     1160     TIP3     H1       HT       0.417000       1.00800           0
     20854 TIP3     1160     TIP3     H2       HT       0.417000       1.00800           0
     20855 TIP3     1161     TIP3     OH2      OT      -0.834000       15.9994           0
     20856 TIP3     1161     TIP3     H1       HT       0.417000       1.00800           0
     20857 TIP3     1161     TIP3     H2       HT       0.417000       1.00800           0
     20858 TIP3     1162     TIP3     OH2      OT      -0.834000       15.9994           0
     20859 TIP3     1162     TIP3     H1       HT       0.417000       1.00800           0
     20860 TIP3     1162     TIP3     H2       HT       0.417000       1.00800           0
     20861 TIP3     1163     TIP3     OH2      OT      -0.834000       15.9994           0
     20862 TIP3     1163     TIP3     H1       HT       0.417000       1.00800           0
     20863 TIP3     1163     TIP3     H2       HT       0.417000       1.00800           0
     20864 TIP3     1164     TIP3     OH2      OT      -0.834000       15.9994           0
     20865 TIP3     1164     TIP3     H1       HT       0.417000       1.00800           0
     20866 TIP3     1164     TIP3     H2       HT       0.417000       1.00800           0
     20867 TIP3     1165     TIP3     OH2      OT      -0.834000       15.9994           0
     20868 TIP3     1165     TIP3     H1       HT       0.417000       1.00800           0
     20869 TIP3     1165     TIP3     H2       HT       0.417000       1.00800           0
     20870 TIP3     1166     TIP3     OH2      OT      -0.834000       15.9994           0
     20871 TIP3     1166     TIP3     H1       HT       0.417000       1.00800           0
     20872 TIP3     1166     TIP3     H2       HT       0.417000       1.00800           0
     20873 TIP3     1167     TIP3     OH2      OT      -0.834000       15.9994           0
     20874 TIP3     1167     TIP3     H1       HT       0.417000       1.00800           0
     20875 TIP3     1167     TIP3     H2       HT       0.417000       1.00800           0
     20876 TIP3     1168     TIP3     OH2      OT      -0.834000       15.9994           0
     20877 TIP3     1168     TIP3     H1       HT       0.417000       1.00800           0
     20878 TIP3     1168     TIP3     H2       HT       0.417000       1.00800           0
     20879 TIP3     1169     TIP3     OH2      OT      -0.834000       15.9994           0
     20880 TIP3     1169     TIP3     H1       HT       0.417000       1.00800           0
     20881 TIP3     1169     TIP3     H2       HT       0.417000       1.00800           0
     20882 TIP3     1170     TIP3     OH2      OT      -0.834000       15.9994           0
     20883 TIP3     1170     TIP3     H1       HT       0.417000       1.00800           0
     20884 TIP3     1170     TIP3     H2       HT       0.417000       1.00800           0
     20885 TIP3     1171     TIP3     OH2      OT      -0.834000       15.9994           0
     20886 TIP3     1171     TIP3     H1       HT       0.417000       1.00800           0
     20887 TIP3     1171     TIP3     H2       HT       0.417000       1.00800           0
     20888 TIP3     1172     TIP3     OH2      OT      -0.834000       15.9994           0
     20889 TIP3     1172     TIP3     H1       HT       0.417000       1.00800           0
     20890 TIP3     1172     TIP3     H2       HT       0.417000       1.00800           0
     20891 TIP3     1173     TIP3     OH2      OT      -0.834000       15.9994           0
     20892 TIP3     1173     TIP3     H1       HT       0.417000       1.00800           0
     20893 TIP3     1173     TIP3     H2       HT       0.417000       1.00800           0
     20894 TIP3     1174     TIP3     OH2      OT      -0.834000       15.9994           0
     20895 TIP3     1174     TIP3     H1       HT       0.417000       1.00800           0
     20896 TIP3     1174     TIP3     H2       HT       0.417000       1.00800           0
     20897 TIP3     1175     TIP3     OH2      OT      -0.834000       15.9994           0
     20898 TIP3     1175     TIP3     H1       HT       0.417000       1.00800           0
     20899 TIP3     1175     TIP3     H2       HT       0.417000       1.00800           0
     20900 TIP3     1176     TIP3     OH2      OT      -0.834000       15.9994           0
     20901 TIP3     1176     TIP3     H1       HT       0.417000       1.00800           0
     20902 TIP3     1176     TIP3     H2       HT       0.417000       1.00800           0
     20903 TIP3     1177     TIP3     OH2      OT      -0.834000       15.9994           0
     20904 TIP3     1177     TIP3     H1       HT       0.417000       1.00800           0
     20905 TIP3     1177     TIP3     H2       HT       0.417000       1.00800           0
     20906 TIP3     1178     TIP3     OH2      OT      -0.834000       15.9994           0
     20907 TIP3     1178     TIP3     H1       HT       0.417000       1.00800           0
     20908 TIP3     1178     TIP3     H2       HT       0.417000       1.00800           0
     20909 TIP3     1179     TIP3     OH2      OT      -0.834000       15.9994           0
     20910 TIP3     1179     TIP3     H1       HT       0.417000       1.00800           0
     20911 TIP3     1179     TIP3     H2       HT       0.417000       1.00800           0
     20912 TIP3     1180     TIP3     OH2      OT      -0.834000       15.9994           0
     20913 TIP3     1180     TIP3     H1       HT       0.417000       1.00800           0
     20914 TIP3     1180     TIP3     H2       HT       0.417000       1.00800           0
     20915 TIP3     1181     TIP3     OH2      OT      -0.834000       15.9994           0
     20916 TIP3     1181     TIP3     H1       HT       0.417000       1.00800           0
     20917 TIP3     1181     TIP3     H2       HT       0.417000       1.00800           0
     20918 TIP3     1182     TIP3     OH2      OT      -0.834000       15.9994           0
     20919 TIP3     1182     TIP3     H1       HT       0.417000       1.00800           0
     20920 TIP3     1182     TIP3     H2       HT       0.417000       1.00800           0
     20921 TIP3     1183     TIP3     OH2      OT      -0.834000       15.9994           0
     20922 TIP3     1183     TIP3     H1       HT       0.417000       1.00800           0
     20923 TIP3     1183     TIP3     H2       HT       0.417000       1.00800           0
     20924 TIP3     1184     TIP3     OH2      OT      -0.834000       15.9994           0
     20925 TIP3     1184     TIP3     H1       HT       0.417000       1.00800           0
     20926 TIP3     1184     TIP3     H2       HT       0.417000       1.00800           0
     20927 TIP3     1185     TIP3     OH2      OT      -0.834000       15.9994           0
     20928 TIP3     1185     TIP3     H1       HT       0.417000       1.00800           0
     20929 TIP3     1185     TIP3     H2       HT       0.417000       1.00800           0
     20930 TIP3     1186     TIP3     OH2      OT      -0.834000       15.9994           0
     20931 TIP3     1186     TIP3     H1       HT       0.417000       1.00800           0
     20932 TIP3     1186     TIP3     H2       HT       0.417000       1.00800           0
     20933 TIP3     1187     TIP3     OH2      OT      -0.834000       15.9994           0
     20934 TIP3     1187     TIP3     H1       HT       0.417000       1.00800           0
     20935 TIP3     1187     TIP3     H2       HT       0.417000       1.00800           0
     20936 TIP3     1188     TIP3     OH2      OT      -0.834000       15.9994           0
     20937 TIP3     1188     TIP3     H1       HT       0.417000       1.00800           0
     20938 TIP3     1188     TIP3     H2       HT       0.417000       1.00800           0
     20939 TIP3     1189     TIP3     OH2      OT      -0.834000       15.9994           0
     20940 TIP3     1189     TIP3     H1       HT       0.417000       1.00800           0
     20941 TIP3     1189     TIP3     H2       HT       0.417000       1.00800           0
     20942 TIP3     1190     TIP3     OH2      OT      -0.834000       15.9994           0
     20943 TIP3     1190     TIP3     H1       HT       0.417000       1.00800           0
     20944 TIP3     1190     TIP3     H2       HT       0.417000       1.00800           0
     20945 TIP3     1191     TIP3     OH2      OT      -0.834000       15.9994           0
     20946 TIP3     1191     TIP3     H1       HT       0.417000       1.00800           0
     20947 TIP3     1191     TIP3     H2       HT       0.417000       1.00800           0
     20948 TIP3     1192     TIP3     OH2      OT      -0.834000       15.9994           0
     20949 TIP3     1192     TIP3     H1       HT       0.417000       1.00800           0
     20950 TIP3     1192     TIP3     H2       HT       0.417000       1.00800           0
     20951 TIP3     1193     TIP3     OH2      OT      -0.834000       15.9994           0
     20952 TIP3     1193     TIP3     H1       HT       0.417000       1.00800           0
     20953 TIP3     1193     TIP3     H2       HT       0.417000       1.00800           0
     20954 TIP3     1194     TIP3     OH2      OT      -0.834000       15.9994           0
     20955 TIP3     1194     TIP3     H1       HT       0.417000       1.00800           0
     20956 TIP3     1194     TIP3     H2       HT       0.417000       1.00800           0
     20957 TIP3     1195     TIP3     OH2      OT      -0.834000       15.9994           0
     20958 TIP3     1195     TIP3     H1       HT       0.417000       1.00800           0
     20959 TIP3     1195     TIP3     H2       HT       0.417000       1.00800           0
     20960 TIP3     1196     TIP3     OH2      OT      -0.834000       15.9994           0
     20961 TIP3     1196     TIP3     H1       HT       0.417000       1.00800           0
     20962 TIP3     1196     TIP3     H2       HT       0.417000       1.00800           0
     20963 TIP3     1197     TIP3     OH2      OT      -0.834000       15.9994           0
     20964 TIP3     1197     TIP3     H1       HT       0.417000       1.00800           0
     20965 TIP3     1197     TIP3     H2       HT       0.417000       1.00800           0
     20966 TIP3     1198     TIP3     OH2      OT      -0.834000       15.9994           0
     20967 TIP3     1198     TIP3     H1       HT       0.417000       1.00800           0
     20968 TIP3     1198     TIP3     H2       HT       0.417000       1.00800           0
     20969 TIP3     1199     TIP3     OH2      OT      -0.834000       15.9994           0
     20970 TIP3     1199     TIP3     H1       HT       0.417000       1.00800           0
     20971 TIP3     1199     TIP3     H2       HT       0.417000       1.00800           0
     20972 TIP3     1200     TIP3     OH2      OT      -0.834000       15.9994           0
     20973 TIP3     1200     TIP3     H1       HT       0.417000       1.00800           0
     20974 TIP3     1200     TIP3     H2       HT       0.417000       1.00800           0
     20975 TIP3     1201     TIP3     OH2      OT      -0.834000       15.9994           0
     20976 TIP3     1201     TIP3     H1       HT       0.417000       1.00800           0
     20977 TIP3     1201     TIP3     H2       HT       0.417000       1.00800           0
     20978 TIP3     1202     TIP3     OH2      OT      -0.834000       15.9994           0
     20979 TIP3     1202     TIP3     H1       HT       0.417000       1.00800           0
     20980 TIP3     1202     TIP3     H2       HT       0.417000       1.00800           0
     20981 TIP3     1203     TIP3     OH2      OT      -0.834000       15.9994           0
     20982 TIP3     1203     TIP3     H1       HT       0.417000       1.00800           0
     20983 TIP3     1203     TIP3     H2       HT       0.417000       1.00800           0
     20984 TIP3     1204     TIP3     OH2      OT      -0.834000       15.9994           0
     20985 TIP3     1204     TIP3     H1       HT       0.417000       1.00800           0
     20986 TIP3     1204     TIP3     H2       HT       0.417000       1.00800           0
     20987 TIP3     1205     TIP3     OH2      OT      -0.834000       15.9994           0
     20988 TIP3     1205     TIP3     H1       HT       0.417000       1.00800           0
     20989 TIP3     1205     TIP3     H2       HT       0.417000       1.00800           0
     20990 TIP3     1206     TIP3     OH2      OT      -0.834000       15.9994           0
     20991 TIP3     1206     TIP3     H1       HT       0.417000       1.00800           0
     20992 TIP3     1206     TIP3     H2       HT       0.417000       1.00800           0
     20993 TIP3     1207     TIP3     OH2      OT      -0.834000       15.9994           0
     20994 TIP3     1207     TIP3     H1       HT       0.417000       1.00800           0
     20995 TIP3     1207     TIP3     H2       HT       0.417000       1.00800           0
     20996 TIP3     1208     TIP3     OH2      OT      -0.834000       15.9994           0
     20997 TIP3     1208     TIP3     H1       HT       0.417000       1.00800           0
     20998 TIP3     1208     TIP3     H2       HT       0.417000       1.00800           0
     20999 TIP3     1209     TIP3     OH2      OT      -0.834000       15.9994           0
     21000 TIP3     1209     TIP3     H1       HT       0.417000       1.00800           0
     21001 TIP3     1209     TIP3     H2       HT       0.417000       1.00800           0
     21002 TIP3     1210     TIP3     OH2      OT      -0.834000       15.9994           0
     21003 TIP3     1210     TIP3     H1       HT       0.417000       1.00800           0
     21004 TIP3     1210     TIP3     H2       HT       0.417000       1.00800           0
     21005 TIP3     1211     TIP3     OH2      OT      -0.834000       15.9994           0
     21006 TIP3     1211     TIP3     H1       HT       0.417000       1.00800           0
     21007 TIP3     1211     TIP3     H2       HT       0.417000       1.00800           0
     21008 TIP3     1212     TIP3     OH2      OT      -0.834000       15.9994           0
     21009 TIP3     1212     TIP3     H1       HT       0.417000       1.00800           0
     21010 TIP3     1212     TIP3     H2       HT       0.417000       1.00800           0
     21011 TIP3     1213     TIP3     OH2      OT      -0.834000       15.9994           0
     21012 TIP3     1213     TIP3     H1       HT       0.417000       1.00800           0
     21013 TIP3     1213     TIP3     H2       HT       0.417000       1.00800           0
     21014 TIP3     1214     TIP3     OH2      OT      -0.834000       15.9994           0
     21015 TIP3     1214     TIP3     H1       HT       0.417000       1.00800           0
     21016 TIP3     1214     TIP3     H2       HT       0.417000       1.00800           0
     21017 TIP3     1215     TIP3     OH2      OT      -0.834000       15.9994           0
     21018 TIP3     1215     TIP3     H1       HT       0.417000       1.00800           0
     21019 TIP3     1215     TIP3     H2       HT       0.417000       1.00800           0
     21020 TIP3     1216     TIP3     OH2      OT      -0.834000       15.9994           0
     21021 TIP3     1216     TIP3     H1       HT       0.417000       1.00800           0
     21022 TIP3     1216     TIP3     H2       HT       0.417000       1.00800           0
     21023 TIP3     1217     TIP3     OH2      OT      -0.834000       15.9994           0
     21024 TIP3     1217     TIP3     H1       HT       0.417000       1.00800           0
     21025 TIP3     1217     TIP3     H2       HT       0.417000       1.00800           0
     21026 TIP3     1218     TIP3     OH2      OT      -0.834000       15.9994           0
     21027 TIP3     1218     TIP3     H1       HT       0.417000       1.00800           0
     21028 TIP3     1218     TIP3     H2       HT       0.417000       1.00800           0
     21029 TIP3     1219     TIP3     OH2      OT      -0.834000       15.9994           0
     21030 TIP3     1219     TIP3     H1       HT       0.417000       1.00800           0
     21031 TIP3     1219     TIP3     H2       HT       0.417000       1.00800           0
     21032 TIP3     1220     TIP3     OH2      OT      -0.834000       15.9994           0
     21033 TIP3     1220     TIP3     H1       HT       0.417000       1.00800           0
     21034 TIP3     1220     TIP3     H2       HT       0.417000       1.00800           0
     21035 TIP3     1221     TIP3     OH2      OT      -0.834000       15.9994           0
     21036 TIP3     1221     TIP3     H1       HT       0.417000       1.00800           0
     21037 TIP3     1221     TIP3     H2       HT       0.417000       1.00800           0
     21038 TIP3     1222     TIP3     OH2      OT      -0.834000       15.9994           0
     21039 TIP3     1222     TIP3     H1       HT       0.417000       1.00800           0
     21040 TIP3     1222     TIP3     H2       HT       0.417000       1.00800           0
     21041 TIP3     1223     TIP3     OH2      OT      -0.834000       15.9994           0
     21042 TIP3     1223     TIP3     H1       HT       0.417000       1.00800           0
     21043 TIP3     1223     TIP3     H2       HT       0.417000       1.00800           0
     21044 TIP3     1224     TIP3     OH2      OT      -0.834000       15.9994           0
     21045 TIP3     1224     TIP3     H1       HT       0.417000       1.00800           0
     21046 TIP3     1224     TIP3     H2       HT       0.417000       1.00800           0
     21047 TIP3     1225     TIP3     OH2      OT      -0.834000       15.9994           0
     21048 TIP3     1225     TIP3     H1       HT       0.417000       1.00800           0
     21049 TIP3     1225     TIP3     H2       HT       0.417000       1.00800           0
     21050 TIP3     1226     TIP3     OH2      OT      -0.834000       15.9994           0
     21051 TIP3     1226     TIP3     H1       HT       0.417000       1.00800           0
     21052 TIP3     1226     TIP3     H2       HT       0.417000       1.00800           0
     21053 TIP3     1227     TIP3     OH2      OT      -0.834000       15.9994           0
     21054 TIP3     1227     TIP3     H1       HT       0.417000       1.00800           0
     21055 TIP3     1227     TIP3     H2       HT       0.417000       1.00800           0
     21056 TIP3     1228     TIP3     OH2      OT      -0.834000       15.9994           0
     21057 TIP3     1228     TIP3     H1       HT       0.417000       1.00800           0
     21058 TIP3     1228     TIP3     H2       HT       0.417000       1.00800           0
     21059 TIP3     1229     TIP3     OH2      OT      -0.834000       15.9994           0
     21060 TIP3     1229     TIP3     H1       HT       0.417000       1.00800           0
     21061 TIP3     1229     TIP3     H2       HT       0.417000       1.00800           0
     21062 TIP3     1230     TIP3     OH2      OT      -0.834000       15.9994           0
     21063 TIP3     1230     TIP3     H1       HT       0.417000       1.00800           0
     21064 TIP3     1230     TIP3     H2       HT       0.417000       1.00800           0
     21065 TIP3     1231     TIP3     OH2      OT      -0.834000       15.9994           0
     21066 TIP3     1231     TIP3     H1       HT       0.417000       1.00800           0
     21067 TIP3     1231     TIP3     H2       HT       0.417000       1.00800           0
     21068 TIP3     1232     TIP3     OH2      OT      -0.834000       15.9994           0
     21069 TIP3     1232     TIP3     H1       HT       0.417000       1.00800           0
     21070 TIP3     1232     TIP3     H2       HT       0.417000       1.00800           0
     21071 TIP3     1233     TIP3     OH2      OT      -0.834000       15.9994           0
     21072 TIP3     1233     TIP3     H1       HT       0.417000       1.00800           0
     21073 TIP3     1233     TIP3     H2       HT       0.417000       1.00800           0
     21074 TIP3     1234     TIP3     OH2      OT      -0.834000       15.9994           0
     21075 TIP3     1234     TIP3     H1       HT       0.417000       1.00800           0
     21076 TIP3     1234     TIP3     H2       HT       0.417000       1.00800           0
     21077 TIP3     1235     TIP3     OH2      OT      -0.834000       15.9994           0
     21078 TIP3     1235     TIP3     H1       HT       0.417000       1.00800           0
     21079 TIP3     1235     TIP3     H2       HT       0.417000       1.00800           0
     21080 TIP3     1236     TIP3     OH2      OT      -0.834000       15.9994           0
     21081 TIP3     1236     TIP3     H1       HT       0.417000       1.00800           0
     21082 TIP3     1236     TIP3     H2       HT       0.417000       1.00800           0
     21083 TIP3     1237     TIP3     OH2      OT      -0.834000       15.9994           0
     21084 TIP3     1237     TIP3     H1       HT       0.417000       1.00800           0
     21085 TIP3     1237     TIP3     H2       HT       0.417000       1.00800           0
     21086 TIP3     1238     TIP3     OH2      OT      -0.834000       15.9994           0
     21087 TIP3     1238     TIP3     H1       HT       0.417000       1.00800           0
     21088 TIP3     1238     TIP3     H2       HT       0.417000       1.00800           0
     21089 TIP3     1239     TIP3     OH2      OT      -0.834000       15.9994           0
     21090 TIP3     1239     TIP3     H1       HT       0.417000       1.00800           0
     21091 TIP3     1239     TIP3     H2       HT       0.417000       1.00800           0
     21092 TIP3     1240     TIP3     OH2      OT      -0.834000       15.9994           0
     21093 TIP3     1240     TIP3     H1       HT       0.417000       1.00800           0
     21094 TIP3     1240     TIP3     H2       HT       0.417000       1.00800           0
     21095 TIP3     1241     TIP3     OH2      OT      -0.834000       15.9994           0
     21096 TIP3     1241     TIP3     H1       HT       0.417000       1.00800           0
     21097 TIP3     1241     TIP3     H2       HT       0.417000       1.00800           0
     21098 TIP3     1242     TIP3     OH2      OT      -0.834000       15.9994           0
     21099 TIP3     1242     TIP3     H1       HT       0.417000       1.00800           0
     21100 TIP3     1242     TIP3     H2       HT       0.417000       1.00800           0
     21101 TIP3     1243     TIP3     OH2      OT      -0.834000       15.9994           0
     21102 TIP3     1243     TIP3     H1       HT       0.417000       1.00800           0
     21103 TIP3     1243     TIP3     H2       HT       0.417000       1.00800           0
     21104 TIP3     1244     TIP3     OH2      OT      -0.834000       15.9994           0
     21105 TIP3     1244     TIP3     H1       HT       0.417000       1.00800           0
     21106 TIP3     1244     TIP3     H2       HT       0.417000       1.00800           0
     21107 TIP3     1245     TIP3     OH2      OT      -0.834000       15.9994           0
     21108 TIP3     1245     TIP3     H1       HT       0.417000       1.00800           0
     21109 TIP3     1245     TIP3     H2       HT       0.417000       1.00800           0
     21110 TIP3     1246     TIP3     OH2      OT      -0.834000       15.9994           0
     21111 TIP3     1246     TIP3     H1       HT       0.417000       1.00800           0
     21112 TIP3     1246     TIP3     H2       HT       0.417000       1.00800           0
     21113 TIP3     1247     TIP3     OH2      OT      -0.834000       15.9994           0
     21114 TIP3     1247     TIP3     H1       HT       0.417000       1.00800           0
     21115 TIP3     1247     TIP3     H2       HT       0.417000       1.00800           0
     21116 TIP3     1248     TIP3     OH2      OT      -0.834000       15.9994           0
     21117 TIP3     1248     TIP3     H1       HT       0.417000       1.00800           0
     21118 TIP3     1248     TIP3     H2       HT       0.417000       1.00800           0
     21119 TIP3     1249     TIP3     OH2      OT      -0.834000       15.9994           0
     21120 TIP3     1249     TIP3     H1       HT       0.417000       1.00800           0
     21121 TIP3     1249     TIP3     H2       HT       0.417000       1.00800           0
     21122 TIP3     1250     TIP3     OH2      OT      -0.834000       15.9994           0
     21123 TIP3     1250     TIP3     H1       HT       0.417000       1.00800           0
     21124 TIP3     1250     TIP3     H2       HT       0.417000       1.00800           0
     21125 TIP3     1251     TIP3     OH2      OT      -0.834000       15.9994           0
     21126 TIP3     1251     TIP3     H1       HT       0.417000       1.00800           0
     21127 TIP3     1251     TIP3     H2       HT       0.417000       1.00800           0
     21128 TIP3     1252     TIP3     OH2      OT      -0.834000       15.9994           0
     21129 TIP3     1252     TIP3     H1       HT       0.417000       1.00800           0
     21130 TIP3     1252     TIP3     H2       HT       0.417000       1.00800           0
     21131 TIP3     1253     TIP3     OH2      OT      -0.834000       15.9994           0
     21132 TIP3     1253     TIP3     H1       HT       0.417000       1.00800           0
     21133 TIP3     1253     TIP3     H2       HT       0.417000       1.00800           0
     21134 TIP3     1254     TIP3     OH2      OT      -0.834000       15.9994           0
     21135 TIP3     1254     TIP3     H1       HT       0.417000       1.00800           0
     21136 TIP3     1254     TIP3     H2       HT       0.417000       1.00800           0
     21137 TIP3     1255     TIP3     OH2      OT      -0.834000       15.9994           0
     21138 TIP3     1255     TIP3     H1       HT       0.417000       1.00800           0
     21139 TIP3     1255     TIP3     H2       HT       0.417000       1.00800           0
     21140 TIP3     1256     TIP3     OH2      OT      -0.834000       15.9994           0
     21141 TIP3     1256     TIP3     H1       HT       0.417000       1.00800           0
     21142 TIP3     1256     TIP3     H2       HT       0.417000       1.00800           0
     21143 TIP3     1257     TIP3     OH2      OT      -0.834000       15.9994           0
     21144 TIP3     1257     TIP3     H1       HT       0.417000       1.00800           0
     21145 TIP3     1257     TIP3     H2       HT       0.417000       1.00800           0
     21146 TIP3     1258     TIP3     OH2      OT      -0.834000       15.9994           0
     21147 TIP3     1258     TIP3     H1       HT       0.417000       1.00800           0
     21148 TIP3     1258     TIP3     H2       HT       0.417000       1.00800           0
     21149 TIP3     1259     TIP3     OH2      OT      -0.834000       15.9994           0
     21150 TIP3     1259     TIP3     H1       HT       0.417000       1.00800           0
     21151 TIP3     1259     TIP3     H2       HT       0.417000       1.00800           0
     21152 TIP3     1260     TIP3     OH2      OT      -0.834000       15.9994           0
     21153 TIP3     1260     TIP3     H1       HT       0.417000       1.00800           0
     21154 TIP3     1260     TIP3     H2       HT       0.417000       1.00800           0
     21155 TIP3     1261     TIP3     OH2      OT      -0.834000       15.9994           0
     21156 TIP3     1261     TIP3     H1       HT       0.417000       1.00800           0
     21157 TIP3     1261     TIP3     H2       HT       0.417000       1.00800           0
     21158 TIP3     1262     TIP3     OH2      OT      -0.834000       15.9994           0
     21159 TIP3     1262     TIP3     H1       HT       0.417000       1.00800           0
     21160 TIP3     1262     TIP3     H2       HT       0.417000       1.00800           0
     21161 TIP3     1263     TIP3     OH2      OT      -0.834000       15.9994           0
     21162 TIP3     1263     TIP3     H1       HT       0.417000       1.00800           0
     21163 TIP3     1263     TIP3     H2       HT       0.417000       1.00800           0
     21164 TIP3     1264     TIP3     OH2      OT      -0.834000       15.9994           0
     21165 TIP3     1264     TIP3     H1       HT       0.417000       1.00800           0
     21166 TIP3     1264     TIP3     H2       HT       0.417000       1.00800           0
     21167 TIP3     1265     TIP3     OH2      OT      -0.834000       15.9994           0
     21168 TIP3     1265     TIP3     H1       HT       0.417000       1.00800           0
     21169 TIP3     1265     TIP3     H2       HT       0.417000       1.00800           0
     21170 TIP3     1266     TIP3     OH2      OT      -0.834000       15.9994           0
     21171 TIP3     1266     TIP3     H1       HT       0.417000       1.00800           0
     21172 TIP3     1266     TIP3     H2       HT       0.417000       1.00800           0
     21173 TIP3     1267     TIP3     OH2      OT      -0.834000       15.9994           0
     21174 TIP3     1267     TIP3     H1       HT       0.417000       1.00800           0
     21175 TIP3     1267     TIP3     H2       HT       0.417000       1.00800           0
     21176 TIP3     1268     TIP3     OH2      OT      -0.834000       15.9994           0
     21177 TIP3     1268     TIP3     H1       HT       0.417000       1.00800           0
     21178 TIP3     1268     TIP3     H2       HT       0.417000       1.00800           0
     21179 TIP3     1269     TIP3     OH2      OT      -0.834000       15.9994           0
     21180 TIP3     1269     TIP3     H1       HT       0.417000       1.00800           0
     21181 TIP3     1269     TIP3     H2       HT       0.417000       1.00800           0
     21182 TIP3     1270     TIP3     OH2      OT      -0.834000       15.9994           0
     21183 TIP3     1270     TIP3     H1       HT       0.417000       1.00800           0
     21184 TIP3     1270     TIP3     H2       HT       0.417000       1.00800           0
     21185 TIP3     1271     TIP3     OH2      OT      -0.834000       15.9994           0
     21186 TIP3     1271     TIP3     H1       HT       0.417000       1.00800           0
     21187 TIP3     1271     TIP3     H2       HT       0.417000       1.00800           0
     21188 TIP3     1272     TIP3     OH2      OT      -0.834000       15.9994           0
     21189 TIP3     1272     TIP3     H1       HT       0.417000       1.00800           0
     21190 TIP3     1272     TIP3     H2       HT       0.417000       1.00800           0
     21191 TIP3     1273     TIP3     OH2      OT      -0.834000       15.9994           0
     21192 TIP3     1273     TIP3     H1       HT       0.417000       1.00800           0
     21193 TIP3     1273     TIP3     H2       HT       0.417000       1.00800           0
     21194 TIP3     1274     TIP3     OH2      OT      -0.834000       15.9994           0
     21195 TIP3     1274     TIP3     H1       HT       0.417000       1.00800           0
     21196 TIP3     1274     TIP3     H2       HT       0.417000       1.00800           0
     21197 TIP3     1275     TIP3     OH2      OT      -0.834000       15.9994           0
     21198 TIP3     1275     TIP3     H1       HT       0.417000       1.00800           0
     21199 TIP3     1275     TIP3     H2       HT       0.417000       1.00800           0
     21200 TIP3     1276     TIP3     OH2      OT      -0.834000       15.9994           0
     21201 TIP3     1276     TIP3     H1       HT       0.417000       1.00800           0
     21202 TIP3     1276     TIP3     H2       HT       0.417000       1.00800           0
     21203 TIP3     1277     TIP3     OH2      OT      -0.834000       15.9994           0
     21204 TIP3     1277     TIP3     H1       HT       0.417000       1.00800           0
     21205 TIP3     1277     TIP3     H2       HT       0.417000       1.00800           0
     21206 TIP3     1278     TIP3     OH2      OT      -0.834000       15.9994           0
     21207 TIP3     1278     TIP3     H1       HT       0.417000       1.00800           0
     21208 TIP3     1278     TIP3     H2       HT       0.417000       1.00800           0
     21209 TIP3     1279     TIP3     OH2      OT      -0.834000       15.9994           0
     21210 TIP3     1279     TIP3     H1       HT       0.417000       1.00800           0
     21211 TIP3     1279     TIP3     H2       HT       0.417000       1.00800           0
     21212 TIP3     1280     TIP3     OH2      OT      -0.834000       15.9994           0
     21213 TIP3     1280     TIP3     H1       HT       0.417000       1.00800           0
     21214 TIP3     1280     TIP3     H2       HT       0.417000       1.00800           0
     21215 TIP3     1281     TIP3     OH2      OT      -0.834000       15.9994           0
     21216 TIP3     1281     TIP3     H1       HT       0.417000       1.00800           0
     21217 TIP3     1281     TIP3     H2       HT       0.417000       1.00800           0
     21218 TIP3     1282     TIP3     OH2      OT      -0.834000       15.9994           0
     21219 TIP3     1282     TIP3     H1       HT       0.417000       1.00800           0
     21220 TIP3     1282     TIP3     H2       HT       0.417000       1.00800           0
     21221 TIP3     1283     TIP3     OH2      OT      -0.834000       15.9994           0
     21222 TIP3     1283     TIP3     H1       HT       0.417000       1.00800           0
     21223 TIP3     1283     TIP3     H2       HT       0.417000       1.00800           0
     21224 TIP3     1284     TIP3     OH2      OT      -0.834000       15.9994           0
     21225 TIP3     1284     TIP3     H1       HT       0.417000       1.00800           0
     21226 TIP3     1284     TIP3     H2       HT       0.417000       1.00800           0
     21227 TIP3     1285     TIP3     OH2      OT      -0.834000       15.9994           0
     21228 TIP3     1285     TIP3     H1       HT       0.417000       1.00800           0
     21229 TIP3     1285     TIP3     H2       HT       0.417000       1.00800           0
     21230 TIP3     1286     TIP3     OH2      OT      -0.834000       15.9994           0
     21231 TIP3     1286     TIP3     H1       HT       0.417000       1.00800           0
     21232 TIP3     1286     TIP3     H2       HT       0.417000       1.00800           0
     21233 TIP3     1287     TIP3     OH2      OT      -0.834000       15.9994           0
     21234 TIP3     1287     TIP3     H1       HT       0.417000       1.00800           0
     21235 TIP3     1287     TIP3     H2       HT       0.417000       1.00800           0
     21236 TIP3     1288     TIP3     OH2      OT      -0.834000       15.9994           0
     21237 TIP3     1288     TIP3     H1       HT       0.417000       1.00800           0
     21238 TIP3     1288     TIP3     H2       HT       0.417000       1.00800           0
     21239 TIP3     1289     TIP3     OH2      OT      -0.834000       15.9994           0
     21240 TIP3     1289     TIP3     H1       HT       0.417000       1.00800           0
     21241 TIP3     1289     TIP3     H2       HT       0.417000       1.00800           0
     21242 TIP3     1290     TIP3     OH2      OT      -0.834000       15.9994           0
     21243 TIP3     1290     TIP3     H1       HT       0.417000       1.00800           0
     21244 TIP3     1290     TIP3     H2       HT       0.417000       1.00800           0
     21245 TIP3     1291     TIP3     OH2      OT      -0.834000       15.9994           0
     21246 TIP3     1291     TIP3     H1       HT       0.417000       1.00800           0
     21247 TIP3     1291     TIP3     H2       HT       0.417000       1.00800           0
     21248 TIP3     1292     TIP3     OH2      OT      -0.834000       15.9994           0
     21249 TIP3     1292     TIP3     H1       HT       0.417000       1.00800           0
     21250 TIP3     1292     TIP3     H2       HT       0.417000       1.00800           0
     21251 TIP3     1293     TIP3     OH2      OT      -0.834000       15.9994           0
     21252 TIP3     1293     TIP3     H1       HT       0.417000       1.00800           0
     21253 TIP3     1293     TIP3     H2       HT       0.417000       1.00800           0
     21254 TIP3     1294     TIP3     OH2      OT      -0.834000       15.9994           0
     21255 TIP3     1294     TIP3     H1       HT       0.417000       1.00800           0
     21256 TIP3     1294     TIP3     H2       HT       0.417000       1.00800           0
     21257 TIP3     1295     TIP3     OH2      OT      -0.834000       15.9994           0
     21258 TIP3     1295     TIP3     H1       HT       0.417000       1.00800           0
     21259 TIP3     1295     TIP3     H2       HT       0.417000       1.00800           0
     21260 TIP3     1296     TIP3     OH2      OT      -0.834000       15.9994           0
     21261 TIP3     1296     TIP3     H1       HT       0.417000       1.00800           0
     21262 TIP3     1296     TIP3     H2       HT       0.417000       1.00800           0
     21263 TIP3     1297     TIP3     OH2      OT      -0.834000       15.9994           0
     21264 TIP3     1297     TIP3     H1       HT       0.417000       1.00800           0
     21265 TIP3     1297     TIP3     H2       HT       0.417000       1.00800           0
     21266 TIP3     1298     TIP3     OH2      OT      -0.834000       15.9994           0
     21267 TIP3     1298     TIP3     H1       HT       0.417000       1.00800           0
     21268 TIP3     1298     TIP3     H2       HT       0.417000       1.00800           0
     21269 TIP3     1299     TIP3     OH2      OT      -0.834000       15.9994           0
     21270 TIP3     1299     TIP3     H1       HT       0.417000       1.00800           0
     21271 TIP3     1299     TIP3     H2       HT       0.417000       1.00800           0
     21272 TIP3     1300     TIP3     OH2      OT      -0.834000       15.9994           0
     21273 TIP3     1300     TIP3     H1       HT       0.417000       1.00800           0
     21274 TIP3     1300     TIP3     H2       HT       0.417000       1.00800           0
     21275 TIP3     1301     TIP3     OH2      OT      -0.834000       15.9994           0
     21276 TIP3     1301     TIP3     H1       HT       0.417000       1.00800           0
     21277 TIP3     1301     TIP3     H2       HT       0.417000       1.00800           0
     21278 TIP3     1302     TIP3     OH2      OT      -0.834000       15.9994           0
     21279 TIP3     1302     TIP3     H1       HT       0.417000       1.00800           0
     21280 TIP3     1302     TIP3     H2       HT       0.417000       1.00800           0
     21281 TIP3     1303     TIP3     OH2      OT      -0.834000       15.9994           0
     21282 TIP3     1303     TIP3     H1       HT       0.417000       1.00800           0
     21283 TIP3     1303     TIP3     H2       HT       0.417000       1.00800           0
     21284 TIP3     1304     TIP3     OH2      OT      -0.834000       15.9994           0
     21285 TIP3     1304     TIP3     H1       HT       0.417000       1.00800           0
     21286 TIP3     1304     TIP3     H2       HT       0.417000       1.00800           0
     21287 TIP3     1305     TIP3     OH2      OT      -0.834000       15.9994           0
     21288 TIP3     1305     TIP3     H1       HT       0.417000       1.00800           0
     21289 TIP3     1305     TIP3     H2       HT       0.417000       1.00800           0
     21290 TIP3     1306     TIP3     OH2      OT      -0.834000       15.9994           0
     21291 TIP3     1306     TIP3     H1       HT       0.417000       1.00800           0
     21292 TIP3     1306     TIP3     H2       HT       0.417000       1.00800           0
     21293 TIP3     1307     TIP3     OH2      OT      -0.834000       15.9994           0
     21294 TIP3     1307     TIP3     H1       HT       0.417000       1.00800           0
     21295 TIP3     1307     TIP3     H2       HT       0.417000       1.00800           0
     21296 TIP3     1308     TIP3     OH2      OT      -0.834000       15.9994           0
     21297 TIP3     1308     TIP3     H1       HT       0.417000       1.00800           0
     21298 TIP3     1308     TIP3     H2       HT       0.417000       1.00800           0
     21299 TIP3     1309     TIP3     OH2      OT      -0.834000       15.9994           0
     21300 TIP3     1309     TIP3     H1       HT       0.417000       1.00800           0
     21301 TIP3     1309     TIP3     H2       HT       0.417000       1.00800           0
     21302 TIP3     1310     TIP3     OH2      OT      -0.834000       15.9994           0
     21303 TIP3     1310     TIP3     H1       HT       0.417000       1.00800           0
     21304 TIP3     1310     TIP3     H2       HT       0.417000       1.00800           0
     21305 TIP3     1311     TIP3     OH2      OT      -0.834000       15.9994           0
     21306 TIP3     1311     TIP3     H1       HT       0.417000       1.00800           0
     21307 TIP3     1311     TIP3     H2       HT       0.417000       1.00800           0
     21308 TIP3     1312     TIP3     OH2      OT      -0.834000       15.9994           0
     21309 TIP3     1312     TIP3     H1       HT       0.417000       1.00800           0
     21310 TIP3     1312     TIP3     H2       HT       0.417000       1.00800           0
     21311 TIP3     1313     TIP3     OH2      OT      -0.834000       15.9994           0
     21312 TIP3     1313     TIP3     H1       HT       0.417000       1.00800           0
     21313 TIP3     1313     TIP3     H2       HT       0.417000       1.00800           0
     21314 TIP3     1314     TIP3     OH2      OT      -0.834000       15.9994           0
     21315 TIP3     1314     TIP3     H1       HT       0.417000       1.00800           0
     21316 TIP3     1314     TIP3     H2       HT       0.417000       1.00800           0
     21317 TIP3     1315     TIP3     OH2      OT      -0.834000       15.9994           0
     21318 TIP3     1315     TIP3     H1       HT       0.417000       1.00800           0
     21319 TIP3     1315     TIP3     H2       HT       0.417000       1.00800           0
     21320 TIP3     1316     TIP3     OH2      OT      -0.834000       15.9994           0
     21321 TIP3     1316     TIP3     H1       HT       0.417000       1.00800           0
     21322 TIP3     1316     TIP3     H2       HT       0.417000       1.00800           0
     21323 TIP3     1317     TIP3     OH2      OT      -0.834000       15.9994           0
     21324 TIP3     1317     TIP3     H1       HT       0.417000       1.00800           0
     21325 TIP3     1317     TIP3     H2       HT       0.417000       1.00800           0
     21326 TIP3     1318     TIP3     OH2      OT      -0.834000       15.9994           0
     21327 TIP3     1318     TIP3     H1       HT       0.417000       1.00800           0
     21328 TIP3     1318     TIP3     H2       HT       0.417000       1.00800           0
     21329 TIP3     1319     TIP3     OH2      OT      -0.834000       15.9994           0
     21330 TIP3     1319     TIP3     H1       HT       0.417000       1.00800           0
     21331 TIP3     1319     TIP3     H2       HT       0.417000       1.00800           0
     21332 TIP3     1320     TIP3     OH2      OT      -0.834000       15.9994           0
     21333 TIP3     1320     TIP3     H1       HT       0.417000       1.00800           0
     21334 TIP3     1320     TIP3     H2       HT       0.417000       1.00800           0
     21335 TIP3     1321     TIP3     OH2      OT      -0.834000       15.9994           0
     21336 TIP3     1321     TIP3     H1       HT       0.417000       1.00800           0
     21337 TIP3     1321     TIP3     H2       HT       0.417000       1.00800           0
     21338 TIP3     1322     TIP3     OH2      OT      -0.834000       15.9994           0
     21339 TIP3     1322     TIP3     H1       HT       0.417000       1.00800           0
     21340 TIP3     1322     TIP3     H2       HT       0.417000       1.00800           0
     21341 TIP3     1323     TIP3     OH2      OT      -0.834000       15.9994           0
     21342 TIP3     1323     TIP3     H1       HT       0.417000       1.00800           0
     21343 TIP3     1323     TIP3     H2       HT       0.417000       1.00800           0
     21344 TIP3     1324     TIP3     OH2      OT      -0.834000       15.9994           0
     21345 TIP3     1324     TIP3     H1       HT       0.417000       1.00800           0
     21346 TIP3     1324     TIP3     H2       HT       0.417000       1.00800           0
     21347 TIP3     1325     TIP3     OH2      OT      -0.834000       15.9994           0
     21348 TIP3     1325     TIP3     H1       HT       0.417000       1.00800           0
     21349 TIP3     1325     TIP3     H2       HT       0.417000       1.00800           0
     21350 TIP3     1326     TIP3     OH2      OT      -0.834000       15.9994           0
     21351 TIP3     1326     TIP3     H1       HT       0.417000       1.00800           0
     21352 TIP3     1326     TIP3     H2       HT       0.417000       1.00800           0
     21353 TIP3     1327     TIP3     OH2      OT      -0.834000       15.9994           0
     21354 TIP3     1327     TIP3     H1       HT       0.417000       1.00800           0
     21355 TIP3     1327     TIP3     H2       HT       0.417000       1.00800           0
     21356 TIP3     1328     TIP3     OH2      OT      -0.834000       15.9994           0
     21357 TIP3     1328     TIP3     H1       HT       0.417000       1.00800           0
     21358 TIP3     1328     TIP3     H2       HT       0.417000       1.00800           0
     21359 TIP3     1329     TIP3     OH2      OT      -0.834000       15.9994           0
     21360 TIP3     1329     TIP3     H1       HT       0.417000       1.00800           0
     21361 TIP3     1329     TIP3     H2       HT       0.417000       1.00800           0
     21362 TIP3     1330     TIP3     OH2      OT      -0.834000       15.9994           0
     21363 TIP3     1330     TIP3     H1       HT       0.417000       1.00800           0
     21364 TIP3     1330     TIP3     H2       HT       0.417000       1.00800           0
     21365 TIP3     1331     TIP3     OH2      OT      -0.834000       15.9994           0
     21366 TIP3     1331     TIP3     H1       HT       0.417000       1.00800           0
     21367 TIP3     1331     TIP3     H2       HT       0.417000       1.00800           0
     21368 TIP3     1332     TIP3     OH2      OT      -0.834000       15.9994           0
     21369 TIP3     1332     TIP3     H1       HT       0.417000       1.00800           0
     21370 TIP3     1332     TIP3     H2       HT       0.417000       1.00800           0
     21371 TIP3     1333     TIP3     OH2      OT      -0.834000       15.9994           0
     21372 TIP3     1333     TIP3     H1       HT       0.417000       1.00800           0
     21373 TIP3     1333     TIP3     H2       HT       0.417000       1.00800           0
     21374 TIP3     1334     TIP3     OH2      OT      -0.834000       15.9994           0
     21375 TIP3     1334     TIP3     H1       HT       0.417000       1.00800           0
     21376 TIP3     1334     TIP3     H2       HT       0.417000       1.00800           0
     21377 TIP3     1335     TIP3     OH2      OT      -0.834000       15.9994           0
     21378 TIP3     1335     TIP3     H1       HT       0.417000       1.00800           0
     21379 TIP3     1335     TIP3     H2       HT       0.417000       1.00800           0
     21380 TIP3     1336     TIP3     OH2      OT      -0.834000       15.9994           0
     21381 TIP3     1336     TIP3     H1       HT       0.417000       1.00800           0
     21382 TIP3     1336     TIP3     H2       HT       0.417000       1.00800           0
     21383 TIP3     1337     TIP3     OH2      OT      -0.834000       15.9994           0
     21384 TIP3     1337     TIP3     H1       HT       0.417000       1.00800           0
     21385 TIP3     1337     TIP3     H2       HT       0.417000       1.00800           0
     21386 TIP3     1338     TIP3     OH2      OT      -0.834000       15.9994           0
     21387 TIP3     1338     TIP3     H1       HT       0.417000       1.00800           0
     21388 TIP3     1338     TIP3     H2       HT       0.417000       1.00800           0
     21389 TIP3     1339     TIP3     OH2      OT      -0.834000       15.9994           0
     21390 TIP3     1339     TIP3     H1       HT       0.417000       1.00800           0
     21391 TIP3     1339     TIP3     H2       HT       0.417000       1.00800           0
     21392 TIP3     1340     TIP3     OH2      OT      -0.834000       15.9994           0
     21393 TIP3     1340     TIP3     H1       HT       0.417000       1.00800           0
     21394 TIP3     1340     TIP3     H2       HT       0.417000       1.00800           0
     21395 TIP3     1341     TIP3     OH2      OT      -0.834000       15.9994           0
     21396 TIP3     1341     TIP3     H1       HT       0.417000       1.00800           0
     21397 TIP3     1341     TIP3     H2       HT       0.417000       1.00800           0
     21398 TIP3     1342     TIP3     OH2      OT      -0.834000       15.9994           0
     21399 TIP3     1342     TIP3     H1       HT       0.417000       1.00800           0
     21400 TIP3     1342     TIP3     H2       HT       0.417000       1.00800           0
     21401 TIP3     1343     TIP3     OH2      OT      -0.834000       15.9994           0
     21402 TIP3     1343     TIP3     H1       HT       0.417000       1.00800           0
     21403 TIP3     1343     TIP3     H2       HT       0.417000       1.00800           0
     21404 TIP3     1344     TIP3     OH2      OT      -0.834000       15.9994           0
     21405 TIP3     1344     TIP3     H1       HT       0.417000       1.00800           0
     21406 TIP3     1344     TIP3     H2       HT       0.417000       1.00800           0
     21407 TIP3     1345     TIP3     OH2      OT      -0.834000       15.9994           0
     21408 TIP3     1345     TIP3     H1       HT       0.417000       1.00800           0
     21409 TIP3     1345     TIP3     H2       HT       0.417000       1.00800           0
     21410 TIP3     1346     TIP3     OH2      OT      -0.834000       15.9994           0
     21411 TIP3     1346     TIP3     H1       HT       0.417000       1.00800           0
     21412 TIP3     1346     TIP3     H2       HT       0.417000       1.00800           0
     21413 TIP3     1347     TIP3     OH2      OT      -0.834000       15.9994           0
     21414 TIP3     1347     TIP3     H1       HT       0.417000       1.00800           0
     21415 TIP3     1347     TIP3     H2       HT       0.417000       1.00800           0
     21416 TIP3     1348     TIP3     OH2      OT      -0.834000       15.9994           0
     21417 TIP3     1348     TIP3     H1       HT       0.417000       1.00800           0
     21418 TIP3     1348     TIP3     H2       HT       0.417000       1.00800           0
     21419 TIP3     1349     TIP3     OH2      OT      -0.834000       15.9994           0
     21420 TIP3     1349     TIP3     H1       HT       0.417000       1.00800           0
     21421 TIP3     1349     TIP3     H2       HT       0.417000       1.00800           0
     21422 TIP3     1350     TIP3     OH2      OT      -0.834000       15.9994           0
     21423 TIP3     1350     TIP3     H1       HT       0.417000       1.00800           0
     21424 TIP3     1350     TIP3     H2       HT       0.417000       1.00800           0
     21425 TIP3     1351     TIP3     OH2      OT      -0.834000       15.9994           0
     21426 TIP3     1351     TIP3     H1       HT       0.417000       1.00800           0
     21427 TIP3     1351     TIP3     H2       HT       0.417000       1.00800           0
     21428 TIP3     1352     TIP3     OH2      OT      -0.834000       15.9994           0
     21429 TIP3     1352     TIP3     H1       HT       0.417000       1.00800           0
     21430 TIP3     1352     TIP3     H2       HT       0.417000       1.00800           0
     21431 TIP3     1353     TIP3     OH2      OT      -0.834000       15.9994           0
     21432 TIP3     1353     TIP3     H1       HT       0.417000       1.00800           0
     21433 TIP3     1353     TIP3     H2       HT       0.417000       1.00800           0
     21434 TIP3     1354     TIP3     OH2      OT      -0.834000       15.9994           0
     21435 TIP3     1354     TIP3     H1       HT       0.417000       1.00800           0
     21436 TIP3     1354     TIP3     H2       HT       0.417000       1.00800           0
     21437 TIP3     1355     TIP3     OH2      OT      -0.834000       15.9994           0
     21438 TIP3     1355     TIP3     H1       HT       0.417000       1.00800           0
     21439 TIP3     1355     TIP3     H2       HT       0.417000       1.00800           0
     21440 TIP3     1356     TIP3     OH2      OT      -0.834000       15.9994           0
     21441 TIP3     1356     TIP3     H1       HT       0.417000       1.00800           0
     21442 TIP3     1356     TIP3     H2       HT       0.417000       1.00800           0
     21443 TIP3     1357     TIP3     OH2      OT      -0.834000       15.9994           0
     21444 TIP3     1357     TIP3     H1       HT       0.417000       1.00800           0
     21445 TIP3     1357     TIP3     H2       HT       0.417000       1.00800           0
     21446 TIP3     1358     TIP3     OH2      OT      -0.834000       15.9994           0
     21447 TIP3     1358     TIP3     H1       HT       0.417000       1.00800           0
     21448 TIP3     1358     TIP3     H2       HT       0.417000       1.00800           0
     21449 TIP3     1359     TIP3     OH2      OT      -0.834000       15.9994           0
     21450 TIP3     1359     TIP3     H1       HT       0.417000       1.00800           0
     21451 TIP3     1359     TIP3     H2       HT       0.417000       1.00800           0
     21452 TIP3     1360     TIP3     OH2      OT      -0.834000       15.9994           0
     21453 TIP3     1360     TIP3     H1       HT       0.417000       1.00800           0
     21454 TIP3     1360     TIP3     H2       HT       0.417000       1.00800           0
     21455 TIP3     1361     TIP3     OH2      OT      -0.834000       15.9994           0
     21456 TIP3     1361     TIP3     H1       HT       0.417000       1.00800           0
     21457 TIP3     1361     TIP3     H2       HT       0.417000       1.00800           0
     21458 TIP3     1362     TIP3     OH2      OT      -0.834000       15.9994           0
     21459 TIP3     1362     TIP3     H1       HT       0.417000       1.00800           0
     21460 TIP3     1362     TIP3     H2       HT       0.417000       1.00800           0
     21461 TIP3     1363     TIP3     OH2      OT      -0.834000       15.9994           0
     21462 TIP3     1363     TIP3     H1       HT       0.417000       1.00800           0
     21463 TIP3     1363     TIP3     H2       HT       0.417000       1.00800           0
     21464 TIP3     1364     TIP3     OH2      OT      -0.834000       15.9994           0
     21465 TIP3     1364     TIP3     H1       HT       0.417000       1.00800           0
     21466 TIP3     1364     TIP3     H2       HT       0.417000       1.00800           0
     21467 TIP3     1365     TIP3     OH2      OT      -0.834000       15.9994           0
     21468 TIP3     1365     TIP3     H1       HT       0.417000       1.00800           0
     21469 TIP3     1365     TIP3     H2       HT       0.417000       1.00800           0
     21470 TIP3     1366     TIP3     OH2      OT      -0.834000       15.9994           0
     21471 TIP3     1366     TIP3     H1       HT       0.417000       1.00800           0
     21472 TIP3     1366     TIP3     H2       HT       0.417000       1.00800           0
     21473 TIP3     1367     TIP3     OH2      OT      -0.834000       15.9994           0
     21474 TIP3     1367     TIP3     H1       HT       0.417000       1.00800           0
     21475 TIP3     1367     TIP3     H2       HT       0.417000       1.00800           0
     21476 TIP3     1368     TIP3     OH2      OT      -0.834000       15.9994           0
     21477 TIP3     1368     TIP3     H1       HT       0.417000       1.00800           0
     21478 TIP3     1368     TIP3     H2       HT       0.417000       1.00800           0
     21479 TIP3     1369     TIP3     OH2      OT      -0.834000       15.9994           0
     21480 TIP3     1369     TIP3     H1       HT       0.417000       1.00800           0
     21481 TIP3     1369     TIP3     H2       HT       0.417000       1.00800           0
     21482 TIP3     1370     TIP3     OH2      OT      -0.834000       15.9994           0
     21483 TIP3     1370     TIP3     H1       HT       0.417000       1.00800           0
     21484 TIP3     1370     TIP3     H2       HT       0.417000       1.00800           0
     21485 TIP3     1371     TIP3     OH2      OT      -0.834000       15.9994           0
     21486 TIP3     1371     TIP3     H1       HT       0.417000       1.00800           0
     21487 TIP3     1371     TIP3     H2       HT       0.417000       1.00800           0
     21488 TIP3     1372     TIP3     OH2      OT      -0.834000       15.9994           0
     21489 TIP3     1372     TIP3     H1       HT       0.417000       1.00800           0
     21490 TIP3     1372     TIP3     H2       HT       0.417000       1.00800           0
     21491 TIP3     1373     TIP3     OH2      OT      -0.834000       15.9994           0
     21492 TIP3     1373     TIP3     H1       HT       0.417000       1.00800           0
     21493 TIP3     1373     TIP3     H2       HT       0.417000       1.00800           0
     21494 TIP3     1374     TIP3     OH2      OT      -0.834000       15.9994           0
     21495 TIP3     1374     TIP3     H1       HT       0.417000       1.00800           0
     21496 TIP3     1374     TIP3     H2       HT       0.417000       1.00800           0
     21497 TIP3     1375     TIP3     OH2      OT      -0.834000       15.9994           0
     21498 TIP3     1375     TIP3     H1       HT       0.417000       1.00800           0
     21499 TIP3     1375     TIP3     H2       HT       0.417000       1.00800           0
     21500 TIP3     1376     TIP3     OH2      OT      -0.834000       15.9994           0
     21501 TIP3     1376     TIP3     H1       HT       0.417000       1.00800           0
     21502 TIP3     1376     TIP3     H2       HT       0.417000       1.00800           0
     21503 TIP3     1377     TIP3     OH2      OT      -0.834000       15.9994           0
     21504 TIP3     1377     TIP3     H1       HT       0.417000       1.00800           0
     21505 TIP3     1377     TIP3     H2       HT       0.417000       1.00800           0
     21506 TIP3     1378     TIP3     OH2      OT      -0.834000       15.9994           0
     21507 TIP3     1378     TIP3     H1       HT       0.417000       1.00800           0
     21508 TIP3     1378     TIP3     H2       HT       0.417000       1.00800           0
     21509 TIP3     1379     TIP3     OH2      OT      -0.834000       15.9994           0
     21510 TIP3     1379     TIP3     H1       HT       0.417000       1.00800           0
     21511 TIP3     1379     TIP3     H2       HT       0.417000       1.00800           0
     21512 TIP3     1380     TIP3     OH2      OT      -0.834000       15.9994           0
     21513 TIP3     1380     TIP3     H1       HT       0.417000       1.00800           0
     21514 TIP3     1380     TIP3     H2       HT       0.417000       1.00800           0
     21515 TIP3     1381     TIP3     OH2      OT      -0.834000       15.9994           0
     21516 TIP3     1381     TIP3     H1       HT       0.417000       1.00800           0
     21517 TIP3     1381     TIP3     H2       HT       0.417000       1.00800           0
     21518 TIP3     1382     TIP3     OH2      OT      -0.834000       15.9994           0
     21519 TIP3     1382     TIP3     H1       HT       0.417000       1.00800           0
     21520 TIP3     1382     TIP3     H2       HT       0.417000       1.00800           0
     21521 TIP3     1383     TIP3     OH2      OT      -0.834000       15.9994           0
     21522 TIP3     1383     TIP3     H1       HT       0.417000       1.00800           0
     21523 TIP3     1383     TIP3     H2       HT       0.417000       1.00800           0
     21524 TIP3     1384     TIP3     OH2      OT      -0.834000       15.9994           0
     21525 TIP3     1384     TIP3     H1       HT       0.417000       1.00800           0
     21526 TIP3     1384     TIP3     H2       HT       0.417000       1.00800           0
     21527 TIP3     1385     TIP3     OH2      OT      -0.834000       15.9994           0
     21528 TIP3     1385     TIP3     H1       HT       0.417000       1.00800           0
     21529 TIP3     1385     TIP3     H2       HT       0.417000       1.00800           0
     21530 TIP3     1386     TIP3     OH2      OT      -0.834000       15.9994           0
     21531 TIP3     1386     TIP3     H1       HT       0.417000       1.00800           0
     21532 TIP3     1386     TIP3     H2       HT       0.417000       1.00800           0
     21533 TIP3     1387     TIP3     OH2      OT      -0.834000       15.9994           0
     21534 TIP3     1387     TIP3     H1       HT       0.417000       1.00800           0
     21535 TIP3     1387     TIP3     H2       HT       0.417000       1.00800           0
     21536 TIP3     1388     TIP3     OH2      OT      -0.834000       15.9994           0
     21537 TIP3     1388     TIP3     H1       HT       0.417000       1.00800           0
     21538 TIP3     1388     TIP3     H2       HT       0.417000       1.00800           0
     21539 TIP3     1389     TIP3     OH2      OT      -0.834000       15.9994           0
     21540 TIP3     1389     TIP3     H1       HT       0.417000       1.00800           0
     21541 TIP3     1389     TIP3     H2       HT       0.417000       1.00800           0
     21542 TIP3     1390     TIP3     OH2      OT      -0.834000       15.9994           0
     21543 TIP3     1390     TIP3     H1       HT       0.417000       1.00800           0
     21544 TIP3     1390     TIP3     H2       HT       0.417000       1.00800           0
     21545 TIP3     1391     TIP3     OH2      OT      -0.834000       15.9994           0
     21546 TIP3     1391     TIP3     H1       HT       0.417000       1.00800           0
     21547 TIP3     1391     TIP3     H2       HT       0.417000       1.00800           0
     21548 TIP3     1392     TIP3     OH2      OT      -0.834000       15.9994           0
     21549 TIP3     1392     TIP3     H1       HT       0.417000       1.00800           0
     21550 TIP3     1392     TIP3     H2       HT       0.417000       1.00800           0
     21551 TIP3     1393     TIP3     OH2      OT      -0.834000       15.9994           0
     21552 TIP3     1393     TIP3     H1       HT       0.417000       1.00800           0
     21553 TIP3     1393     TIP3     H2       HT       0.417000       1.00800           0
     21554 TIP3     1394     TIP3     OH2      OT      -0.834000       15.9994           0
     21555 TIP3     1394     TIP3     H1       HT       0.417000       1.00800           0
     21556 TIP3     1394     TIP3     H2       HT       0.417000       1.00800           0
     21557 TIP3     1395     TIP3     OH2      OT      -0.834000       15.9994           0
     21558 TIP3     1395     TIP3     H1       HT       0.417000       1.00800           0
     21559 TIP3     1395     TIP3     H2       HT       0.417000       1.00800           0
     21560 TIP3     1396     TIP3     OH2      OT      -0.834000       15.9994           0
     21561 TIP3     1396     TIP3     H1       HT       0.417000       1.00800           0
     21562 TIP3     1396     TIP3     H2       HT       0.417000       1.00800           0
     21563 TIP3     1397     TIP3     OH2      OT      -0.834000       15.9994           0
     21564 TIP3     1397     TIP3     H1       HT       0.417000       1.00800           0
     21565 TIP3     1397     TIP3     H2       HT       0.417000       1.00800           0
     21566 TIP3     1398     TIP3     OH2      OT      -0.834000       15.9994           0
     21567 TIP3     1398     TIP3     H1       HT       0.417000       1.00800           0
     21568 TIP3     1398     TIP3     H2       HT       0.417000       1.00800           0
     21569 TIP3     1399     TIP3     OH2      OT      -0.834000       15.9994           0
     21570 TIP3     1399     TIP3     H1       HT       0.417000       1.00800           0
     21571 TIP3     1399     TIP3     H2       HT       0.417000       1.00800           0
     21572 TIP3     1400     TIP3     OH2      OT      -0.834000       15.9994           0
     21573 TIP3     1400     TIP3     H1       HT       0.417000       1.00800           0
     21574 TIP3     1400     TIP3     H2       HT       0.417000       1.00800           0
     21575 TIP3     1401     TIP3     OH2      OT      -0.834000       15.9994           0
     21576 TIP3     1401     TIP3     H1       HT       0.417000       1.00800           0
     21577 TIP3     1401     TIP3     H2       HT       0.417000       1.00800           0
     21578 TIP3     1402     TIP3     OH2      OT      -0.834000       15.9994           0
     21579 TIP3     1402     TIP3     H1       HT       0.417000       1.00800           0
     21580 TIP3     1402     TIP3     H2       HT       0.417000       1.00800           0
     21581 TIP3     1403     TIP3     OH2      OT      -0.834000       15.9994           0
     21582 TIP3     1403     TIP3     H1       HT       0.417000       1.00800           0
     21583 TIP3     1403     TIP3     H2       HT       0.417000       1.00800           0
     21584 TIP3     1404     TIP3     OH2      OT      -0.834000       15.9994           0
     21585 TIP3     1404     TIP3     H1       HT       0.417000       1.00800           0
     21586 TIP3     1404     TIP3     H2       HT       0.417000       1.00800           0
     21587 TIP3     1405     TIP3     OH2      OT      -0.834000       15.9994           0
     21588 TIP3     1405     TIP3     H1       HT       0.417000       1.00800           0
     21589 TIP3     1405     TIP3     H2       HT       0.417000       1.00800           0
     21590 TIP3     1406     TIP3     OH2      OT      -0.834000       15.9994           0
     21591 TIP3     1406     TIP3     H1       HT       0.417000       1.00800           0
     21592 TIP3     1406     TIP3     H2       HT       0.417000       1.00800           0
     21593 TIP3     1407     TIP3     OH2      OT      -0.834000       15.9994           0
     21594 TIP3     1407     TIP3     H1       HT       0.417000       1.00800           0
     21595 TIP3     1407     TIP3     H2       HT       0.417000       1.00800           0
     21596 TIP3     1408     TIP3     OH2      OT      -0.834000       15.9994           0
     21597 TIP3     1408     TIP3     H1       HT       0.417000       1.00800           0
     21598 TIP3     1408     TIP3     H2       HT       0.417000       1.00800           0
     21599 TIP3     1409     TIP3     OH2      OT      -0.834000       15.9994           0
     21600 TIP3     1409     TIP3     H1       HT       0.417000       1.00800           0
     21601 TIP3     1409     TIP3     H2       HT       0.417000       1.00800           0
     21602 TIP3     1410     TIP3     OH2      OT      -0.834000       15.9994           0
     21603 TIP3     1410     TIP3     H1       HT       0.417000       1.00800           0
     21604 TIP3     1410     TIP3     H2       HT       0.417000       1.00800           0
     21605 TIP3     1411     TIP3     OH2      OT      -0.834000       15.9994           0
     21606 TIP3     1411     TIP3     H1       HT       0.417000       1.00800           0
     21607 TIP3     1411     TIP3     H2       HT       0.417000       1.00800           0
     21608 TIP3     1412     TIP3     OH2      OT      -0.834000       15.9994           0
     21609 TIP3     1412     TIP3     H1       HT       0.417000       1.00800           0
     21610 TIP3     1412     TIP3     H2       HT       0.417000       1.00800           0
     21611 TIP3     1413     TIP3     OH2      OT      -0.834000       15.9994           0
     21612 TIP3     1413     TIP3     H1       HT       0.417000       1.00800           0
     21613 TIP3     1413     TIP3     H2       HT       0.417000       1.00800           0
     21614 TIP3     1414     TIP3     OH2      OT      -0.834000       15.9994           0
     21615 TIP3     1414     TIP3     H1       HT       0.417000       1.00800           0
     21616 TIP3     1414     TIP3     H2       HT       0.417000       1.00800           0
     21617 TIP3     1415     TIP3     OH2      OT      -0.834000       15.9994           0
     21618 TIP3     1415     TIP3     H1       HT       0.417000       1.00800           0
     21619 TIP3     1415     TIP3     H2       HT       0.417000       1.00800           0
     21620 TIP3     1416     TIP3     OH2      OT      -0.834000       15.9994           0
     21621 TIP3     1416     TIP3     H1       HT       0.417000       1.00800           0
     21622 TIP3     1416     TIP3     H2       HT       0.417000       1.00800           0
     21623 TIP3     1417     TIP3     OH2      OT      -0.834000       15.9994           0
     21624 TIP3     1417     TIP3     H1       HT       0.417000       1.00800           0
     21625 TIP3     1417     TIP3     H2       HT       0.417000       1.00800           0
     21626 TIP3     1418     TIP3     OH2      OT      -0.834000       15.9994           0
     21627 TIP3     1418     TIP3     H1       HT       0.417000       1.00800           0
     21628 TIP3     1418     TIP3     H2       HT       0.417000       1.00800           0
     21629 TIP3     1419     TIP3     OH2      OT      -0.834000       15.9994           0
     21630 TIP3     1419     TIP3     H1       HT       0.417000       1.00800           0
     21631 TIP3     1419     TIP3     H2       HT       0.417000       1.00800           0
     21632 TIP3     1420     TIP3     OH2      OT      -0.834000       15.9994           0
     21633 TIP3     1420     TIP3     H1       HT       0.417000       1.00800           0
     21634 TIP3     1420     TIP3     H2       HT       0.417000       1.00800           0
     21635 TIP3     1421     TIP3     OH2      OT      -0.834000       15.9994           0
     21636 TIP3     1421     TIP3     H1       HT       0.417000       1.00800           0
     21637 TIP3     1421     TIP3     H2       HT       0.417000       1.00800           0
     21638 TIP3     1422     TIP3     OH2      OT      -0.834000       15.9994           0
     21639 TIP3     1422     TIP3     H1       HT       0.417000       1.00800           0
     21640 TIP3     1422     TIP3     H2       HT       0.417000       1.00800           0
     21641 TIP3     1423     TIP3     OH2      OT      -0.834000       15.9994           0
     21642 TIP3     1423     TIP3     H1       HT       0.417000       1.00800           0
     21643 TIP3     1423     TIP3     H2       HT       0.417000       1.00800           0
     21644 TIP3     1424     TIP3     OH2      OT      -0.834000       15.9994           0
     21645 TIP3     1424     TIP3     H1       HT       0.417000       1.00800           0
     21646 TIP3     1424     TIP3     H2       HT       0.417000       1.00800           0
     21647 TIP3     1425     TIP3     OH2      OT      -0.834000       15.9994           0
     21648 TIP3     1425     TIP3     H1       HT       0.417000       1.00800           0
     21649 TIP3     1425     TIP3     H2       HT       0.417000       1.00800           0
     21650 TIP3     1426     TIP3     OH2      OT      -0.834000       15.9994           0
     21651 TIP3     1426     TIP3     H1       HT       0.417000       1.00800           0
     21652 TIP3     1426     TIP3     H2       HT       0.417000       1.00800           0
     21653 TIP3     1427     TIP3     OH2      OT      -0.834000       15.9994           0
     21654 TIP3     1427     TIP3     H1       HT       0.417000       1.00800           0
     21655 TIP3     1427     TIP3     H2       HT       0.417000       1.00800           0
     21656 TIP3     1428     TIP3     OH2      OT      -0.834000       15.9994           0
     21657 TIP3     1428     TIP3     H1       HT       0.417000       1.00800           0
     21658 TIP3     1428     TIP3     H2       HT       0.417000       1.00800           0
     21659 TIP3     1429     TIP3     OH2      OT      -0.834000       15.9994           0
     21660 TIP3     1429     TIP3     H1       HT       0.417000       1.00800           0
     21661 TIP3     1429     TIP3     H2       HT       0.417000       1.00800           0
     21662 TIP3     1430     TIP3     OH2      OT      -0.834000       15.9994           0
     21663 TIP3     1430     TIP3     H1       HT       0.417000       1.00800           0
     21664 TIP3     1430     TIP3     H2       HT       0.417000       1.00800           0
     21665 TIP3     1431     TIP3     OH2      OT      -0.834000       15.9994           0
     21666 TIP3     1431     TIP3     H1       HT       0.417000       1.00800           0
     21667 TIP3     1431     TIP3     H2       HT       0.417000       1.00800           0
     21668 TIP3     1432     TIP3     OH2      OT      -0.834000       15.9994           0
     21669 TIP3     1432     TIP3     H1       HT       0.417000       1.00800           0
     21670 TIP3     1432     TIP3     H2       HT       0.417000       1.00800           0
     21671 TIP3     1433     TIP3     OH2      OT      -0.834000       15.9994           0
     21672 TIP3     1433     TIP3     H1       HT       0.417000       1.00800           0
     21673 TIP3     1433     TIP3     H2       HT       0.417000       1.00800           0
     21674 TIP3     1434     TIP3     OH2      OT      -0.834000       15.9994           0
     21675 TIP3     1434     TIP3     H1       HT       0.417000       1.00800           0
     21676 TIP3     1434     TIP3     H2       HT       0.417000       1.00800           0
     21677 TIP3     1435     TIP3     OH2      OT      -0.834000       15.9994           0
     21678 TIP3     1435     TIP3     H1       HT       0.417000       1.00800           0
     21679 TIP3     1435     TIP3     H2       HT       0.417000       1.00800           0
     21680 TIP3     1436     TIP3     OH2      OT      -0.834000       15.9994           0
     21681 TIP3     1436     TIP3     H1       HT       0.417000       1.00800           0
     21682 TIP3     1436     TIP3     H2       HT       0.417000       1.00800           0
     21683 TIP3     1437     TIP3     OH2      OT      -0.834000       15.9994           0
     21684 TIP3     1437     TIP3     H1       HT       0.417000       1.00800           0
     21685 TIP3     1437     TIP3     H2       HT       0.417000       1.00800           0
     21686 TIP3     1438     TIP3     OH2      OT      -0.834000       15.9994           0
     21687 TIP3     1438     TIP3     H1       HT       0.417000       1.00800           0
     21688 TIP3     1438     TIP3     H2       HT       0.417000       1.00800           0
     21689 TIP3     1439     TIP3     OH2      OT      -0.834000       15.9994           0
     21690 TIP3     1439     TIP3     H1       HT       0.417000       1.00800           0
     21691 TIP3     1439     TIP3     H2       HT       0.417000       1.00800           0
     21692 TIP3     1440     TIP3     OH2      OT      -0.834000       15.9994           0
     21693 TIP3     1440     TIP3     H1       HT       0.417000       1.00800           0
     21694 TIP3     1440     TIP3     H2       HT       0.417000       1.00800           0
     21695 TIP3     1441     TIP3     OH2      OT      -0.834000       15.9994           0
     21696 TIP3     1441     TIP3     H1       HT       0.417000       1.00800           0
     21697 TIP3     1441     TIP3     H2       HT       0.417000       1.00800           0
     21698 TIP3     1442     TIP3     OH2      OT      -0.834000       15.9994           0
     21699 TIP3     1442     TIP3     H1       HT       0.417000       1.00800           0
     21700 TIP3     1442     TIP3     H2       HT       0.417000       1.00800           0
     21701 TIP3     1443     TIP3     OH2      OT      -0.834000       15.9994           0
     21702 TIP3     1443     TIP3     H1       HT       0.417000       1.00800           0
     21703 TIP3     1443     TIP3     H2       HT       0.417000       1.00800           0
     21704 TIP3     1444     TIP3     OH2      OT      -0.834000       15.9994           0
     21705 TIP3     1444     TIP3     H1       HT       0.417000       1.00800           0
     21706 TIP3     1444     TIP3     H2       HT       0.417000       1.00800           0
     21707 TIP3     1445     TIP3     OH2      OT      -0.834000       15.9994           0
     21708 TIP3     1445     TIP3     H1       HT       0.417000       1.00800           0
     21709 TIP3     1445     TIP3     H2       HT       0.417000       1.00800           0
     21710 TIP3     1446     TIP3     OH2      OT      -0.834000       15.9994           0
     21711 TIP3     1446     TIP3     H1       HT       0.417000       1.00800           0
     21712 TIP3     1446     TIP3     H2       HT       0.417000       1.00800           0
     21713 TIP3     1447     TIP3     OH2      OT      -0.834000       15.9994           0
     21714 TIP3     1447     TIP3     H1       HT       0.417000       1.00800           0
     21715 TIP3     1447     TIP3     H2       HT       0.417000       1.00800           0
     21716 TIP3     1448     TIP3     OH2      OT      -0.834000       15.9994           0
     21717 TIP3     1448     TIP3     H1       HT       0.417000       1.00800           0
     21718 TIP3     1448     TIP3     H2       HT       0.417000       1.00800           0
     21719 TIP3     1449     TIP3     OH2      OT      -0.834000       15.9994           0
     21720 TIP3     1449     TIP3     H1       HT       0.417000       1.00800           0
     21721 TIP3     1449     TIP3     H2       HT       0.417000       1.00800           0
     21722 TIP3     1450     TIP3     OH2      OT      -0.834000       15.9994           0
     21723 TIP3     1450     TIP3     H1       HT       0.417000       1.00800           0
     21724 TIP3     1450     TIP3     H2       HT       0.417000       1.00800           0
     21725 TIP3     1451     TIP3     OH2      OT      -0.834000       15.9994           0
     21726 TIP3     1451     TIP3     H1       HT       0.417000       1.00800           0
     21727 TIP3     1451     TIP3     H2       HT       0.417000       1.00800           0
     21728 TIP3     1452     TIP3     OH2      OT      -0.834000       15.9994           0
     21729 TIP3     1452     TIP3     H1       HT       0.417000       1.00800           0
     21730 TIP3     1452     TIP3     H2       HT       0.417000       1.00800           0
     21731 TIP3     1453     TIP3     OH2      OT      -0.834000       15.9994           0
     21732 TIP3     1453     TIP3     H1       HT       0.417000       1.00800           0
     21733 TIP3     1453     TIP3     H2       HT       0.417000       1.00800           0
     21734 TIP3     1454     TIP3     OH2      OT      -0.834000       15.9994           0
     21735 TIP3     1454     TIP3     H1       HT       0.417000       1.00800           0
     21736 TIP3     1454     TIP3     H2       HT       0.417000       1.00800           0
     21737 TIP3     1455     TIP3     OH2      OT      -0.834000       15.9994           0
     21738 TIP3     1455     TIP3     H1       HT       0.417000       1.00800           0
     21739 TIP3     1455     TIP3     H2       HT       0.417000       1.00800           0
     21740 TIP3     1456     TIP3     OH2      OT      -0.834000       15.9994           0
     21741 TIP3     1456     TIP3     H1       HT       0.417000       1.00800           0
     21742 TIP3     1456     TIP3     H2       HT       0.417000       1.00800           0
     21743 TIP3     1457     TIP3     OH2      OT      -0.834000       15.9994           0
     21744 TIP3     1457     TIP3     H1       HT       0.417000       1.00800           0
     21745 TIP3     1457     TIP3     H2       HT       0.417000       1.00800           0
     21746 TIP3     1458     TIP3     OH2      OT      -0.834000       15.9994           0
     21747 TIP3     1458     TIP3     H1       HT       0.417000       1.00800           0
     21748 TIP3     1458     TIP3     H2       HT       0.417000       1.00800           0
     21749 TIP3     1459     TIP3     OH2      OT      -0.834000       15.9994           0
     21750 TIP3     1459     TIP3     H1       HT       0.417000       1.00800           0
     21751 TIP3     1459     TIP3     H2       HT       0.417000       1.00800           0
     21752 TIP3     1460     TIP3     OH2      OT      -0.834000       15.9994           0
     21753 TIP3     1460     TIP3     H1       HT       0.417000       1.00800           0
     21754 TIP3     1460     TIP3     H2       HT       0.417000       1.00800           0
     21755 TIP3     1461     TIP3     OH2      OT      -0.834000       15.9994           0
     21756 TIP3     1461     TIP3     H1       HT       0.417000       1.00800           0
     21757 TIP3     1461     TIP3     H2       HT       0.417000       1.00800           0
     21758 TIP3     1462     TIP3     OH2      OT      -0.834000       15.9994           0
     21759 TIP3     1462     TIP3     H1       HT       0.417000       1.00800           0
     21760 TIP3     1462     TIP3     H2       HT       0.417000       1.00800           0
     21761 TIP3     1463     TIP3     OH2      OT      -0.834000       15.9994           0
     21762 TIP3     1463     TIP3     H1       HT       0.417000       1.00800           0
     21763 TIP3     1463     TIP3     H2       HT       0.417000       1.00800           0
     21764 TIP3     1464     TIP3     OH2      OT      -0.834000       15.9994           0
     21765 TIP3     1464     TIP3     H1       HT       0.417000       1.00800           0
     21766 TIP3     1464     TIP3     H2       HT       0.417000       1.00800           0
     21767 TIP3     1465     TIP3     OH2      OT      -0.834000       15.9994           0
     21768 TIP3     1465     TIP3     H1       HT       0.417000       1.00800           0
     21769 TIP3     1465     TIP3     H2       HT       0.417000       1.00800           0
     21770 TIP3     1466     TIP3     OH2      OT      -0.834000       15.9994           0
     21771 TIP3     1466     TIP3     H1       HT       0.417000       1.00800           0
     21772 TIP3     1466     TIP3     H2       HT       0.417000       1.00800           0
     21773 TIP3     1467     TIP3     OH2      OT      -0.834000       15.9994           0
     21774 TIP3     1467     TIP3     H1       HT       0.417000       1.00800           0
     21775 TIP3     1467     TIP3     H2       HT       0.417000       1.00800           0
     21776 TIP3     1468     TIP3     OH2      OT      -0.834000       15.9994           0
     21777 TIP3     1468     TIP3     H1       HT       0.417000       1.00800           0
     21778 TIP3     1468     TIP3     H2       HT       0.417000       1.00800           0
     21779 TIP3     1469     TIP3     OH2      OT      -0.834000       15.9994           0
     21780 TIP3     1469     TIP3     H1       HT       0.417000       1.00800           0
     21781 TIP3     1469     TIP3     H2       HT       0.417000       1.00800           0
     21782 TIP3     1470     TIP3     OH2      OT      -0.834000       15.9994           0
     21783 TIP3     1470     TIP3     H1       HT       0.417000       1.00800           0
     21784 TIP3     1470     TIP3     H2       HT       0.417000       1.00800           0
     21785 TIP3     1471     TIP3     OH2      OT      -0.834000       15.9994           0
     21786 TIP3     1471     TIP3     H1       HT       0.417000       1.00800           0
     21787 TIP3     1471     TIP3     H2       HT       0.417000       1.00800           0
     21788 TIP3     1472     TIP3     OH2      OT      -0.834000       15.9994           0
     21789 TIP3     1472     TIP3     H1       HT       0.417000       1.00800           0
     21790 TIP3     1472     TIP3     H2       HT       0.417000       1.00800           0
     21791 TIP3     1473     TIP3     OH2      OT      -0.834000       15.9994           0
     21792 TIP3     1473     TIP3     H1       HT       0.417000       1.00800           0
     21793 TIP3     1473     TIP3     H2       HT       0.417000       1.00800           0
     21794 TIP3     1474     TIP3     OH2      OT      -0.834000       15.9994           0
     21795 TIP3     1474     TIP3     H1       HT       0.417000       1.00800           0
     21796 TIP3     1474     TIP3     H2       HT       0.417000       1.00800           0
     21797 TIP3     1475     TIP3     OH2      OT      -0.834000       15.9994           0
     21798 TIP3     1475     TIP3     H1       HT       0.417000       1.00800           0
     21799 TIP3     1475     TIP3     H2       HT       0.417000       1.00800           0
     21800 TIP3     1476     TIP3     OH2      OT      -0.834000       15.9994           0
     21801 TIP3     1476     TIP3     H1       HT       0.417000       1.00800           0
     21802 TIP3     1476     TIP3     H2       HT       0.417000       1.00800           0
     21803 TIP3     1477     TIP3     OH2      OT      -0.834000       15.9994           0
     21804 TIP3     1477     TIP3     H1       HT       0.417000       1.00800           0
     21805 TIP3     1477     TIP3     H2       HT       0.417000       1.00800           0
     21806 TIP3     1478     TIP3     OH2      OT      -0.834000       15.9994           0
     21807 TIP3     1478     TIP3     H1       HT       0.417000       1.00800           0
     21808 TIP3     1478     TIP3     H2       HT       0.417000       1.00800           0
     21809 TIP3     1479     TIP3     OH2      OT      -0.834000       15.9994           0
     21810 TIP3     1479     TIP3     H1       HT       0.417000       1.00800           0
     21811 TIP3     1479     TIP3     H2       HT       0.417000       1.00800           0
     21812 TIP3     1480     TIP3     OH2      OT      -0.834000       15.9994           0
     21813 TIP3     1480     TIP3     H1       HT       0.417000       1.00800           0
     21814 TIP3     1480     TIP3     H2       HT       0.417000       1.00800           0
     21815 TIP3     1481     TIP3     OH2      OT      -0.834000       15.9994           0
     21816 TIP3     1481     TIP3     H1       HT       0.417000       1.00800           0
     21817 TIP3     1481     TIP3     H2       HT       0.417000       1.00800           0
     21818 TIP3     1482     TIP3     OH2      OT      -0.834000       15.9994           0
     21819 TIP3     1482     TIP3     H1       HT       0.417000       1.00800           0
     21820 TIP3     1482     TIP3     H2       HT       0.417000       1.00800           0
     21821 TIP3     1483     TIP3     OH2      OT      -0.834000       15.9994           0
     21822 TIP3     1483     TIP3     H1       HT       0.417000       1.00800           0
     21823 TIP3     1483     TIP3     H2       HT       0.417000       1.00800           0
     21824 TIP3     1484     TIP3     OH2      OT      -0.834000       15.9994           0
     21825 TIP3     1484     TIP3     H1       HT       0.417000       1.00800           0
     21826 TIP3     1484     TIP3     H2       HT       0.417000       1.00800           0
     21827 TIP3     1485     TIP3     OH2      OT      -0.834000       15.9994           0
     21828 TIP3     1485     TIP3     H1       HT       0.417000       1.00800           0
     21829 TIP3     1485     TIP3     H2       HT       0.417000       1.00800           0
     21830 TIP3     1486     TIP3     OH2      OT      -0.834000       15.9994           0
     21831 TIP3     1486     TIP3     H1       HT       0.417000       1.00800           0
     21832 TIP3     1486     TIP3     H2       HT       0.417000       1.00800           0
     21833 TIP3     1487     TIP3     OH2      OT      -0.834000       15.9994           0
     21834 TIP3     1487     TIP3     H1       HT       0.417000       1.00800           0
     21835 TIP3     1487     TIP3     H2       HT       0.417000       1.00800           0
     21836 TIP3     1488     TIP3     OH2      OT      -0.834000       15.9994           0
     21837 TIP3     1488     TIP3     H1       HT       0.417000       1.00800           0
     21838 TIP3     1488     TIP3     H2       HT       0.417000       1.00800           0
     21839 TIP3     1489     TIP3     OH2      OT      -0.834000       15.9994           0
     21840 TIP3     1489     TIP3     H1       HT       0.417000       1.00800           0
     21841 TIP3     1489     TIP3     H2       HT       0.417000       1.00800           0
     21842 TIP3     1490     TIP3     OH2      OT      -0.834000       15.9994           0
     21843 TIP3     1490     TIP3     H1       HT       0.417000       1.00800           0
     21844 TIP3     1490     TIP3     H2       HT       0.417000       1.00800           0
     21845 TIP3     1491     TIP3     OH2      OT      -0.834000       15.9994           0
     21846 TIP3     1491     TIP3     H1       HT       0.417000       1.00800           0
     21847 TIP3     1491     TIP3     H2       HT       0.417000       1.00800           0
     21848 TIP3     1492     TIP3     OH2      OT      -0.834000       15.9994           0
     21849 TIP3     1492     TIP3     H1       HT       0.417000       1.00800           0
     21850 TIP3     1492     TIP3     H2       HT       0.417000       1.00800           0
     21851 TIP3     1493     TIP3     OH2      OT      -0.834000       15.9994           0
     21852 TIP3     1493     TIP3     H1       HT       0.417000       1.00800           0
     21853 TIP3     1493     TIP3     H2       HT       0.417000       1.00800           0
     21854 TIP3     1494     TIP3     OH2      OT      -0.834000       15.9994           0
     21855 TIP3     1494     TIP3     H1       HT       0.417000       1.00800           0
     21856 TIP3     1494     TIP3     H2       HT       0.417000       1.00800           0
     21857 TIP3     1495     TIP3     OH2      OT      -0.834000       15.9994           0
     21858 TIP3     1495     TIP3     H1       HT       0.417000       1.00800           0
     21859 TIP3     1495     TIP3     H2       HT       0.417000       1.00800           0
     21860 TIP3     1496     TIP3     OH2      OT      -0.834000       15.9994           0
     21861 TIP3     1496     TIP3     H1       HT       0.417000       1.00800           0
     21862 TIP3     1496     TIP3     H2       HT       0.417000       1.00800           0
     21863 TIP3     1497     TIP3     OH2      OT      -0.834000       15.9994           0
     21864 TIP3     1497     TIP3     H1       HT       0.417000       1.00800           0
     21865 TIP3     1497     TIP3     H2       HT       0.417000       1.00800           0
     21866 TIP3     1498     TIP3     OH2      OT      -0.834000       15.9994           0
     21867 TIP3     1498     TIP3     H1       HT       0.417000       1.00800           0
     21868 TIP3     1498     TIP3     H2       HT       0.417000       1.00800           0
     21869 TIP3     1499     TIP3     OH2      OT      -0.834000       15.9994           0
     21870 TIP3     1499     TIP3     H1       HT       0.417000       1.00800           0
     21871 TIP3     1499     TIP3     H2       HT       0.417000       1.00800           0
     21872 TIP3     1500     TIP3     OH2      OT      -0.834000       15.9994           0
     21873 TIP3     1500     TIP3     H1       HT       0.417000       1.00800           0
     21874 TIP3     1500     TIP3     H2       HT       0.417000       1.00800           0
     21875 TIP3     1501     TIP3     OH2      OT      -0.834000       15.9994           0
     21876 TIP3     1501     TIP3     H1       HT       0.417000       1.00800           0
     21877 TIP3     1501     TIP3     H2       HT       0.417000       1.00800           0
     21878 TIP3     1502     TIP3     OH2      OT      -0.834000       15.9994           0
     21879 TIP3     1502     TIP3     H1       HT       0.417000       1.00800           0
     21880 TIP3     1502     TIP3     H2       HT       0.417000       1.00800           0
     21881 TIP3     1503     TIP3     OH2      OT      -0.834000       15.9994           0
     21882 TIP3     1503     TIP3     H1       HT       0.417000       1.00800           0
     21883 TIP3     1503     TIP3     H2       HT       0.417000       1.00800           0
     21884 TIP3     1504     TIP3     OH2      OT      -0.834000       15.9994           0
     21885 TIP3     1504     TIP3     H1       HT       0.417000       1.00800           0
     21886 TIP3     1504     TIP3     H2       HT       0.417000       1.00800           0
     21887 TIP3     1505     TIP3     OH2      OT      -0.834000       15.9994           0
     21888 TIP3     1505     TIP3     H1       HT       0.417000       1.00800           0
     21889 TIP3     1505     TIP3     H2       HT       0.417000       1.00800           0
     21890 TIP3     1506     TIP3     OH2      OT      -0.834000       15.9994           0
     21891 TIP3     1506     TIP3     H1       HT       0.417000       1.00800           0
     21892 TIP3     1506     TIP3     H2       HT       0.417000       1.00800           0
     21893 TIP3     1507     TIP3     OH2      OT      -0.834000       15.9994           0
     21894 TIP3     1507     TIP3     H1       HT       0.417000       1.00800           0
     21895 TIP3     1507     TIP3     H2       HT       0.417000       1.00800           0
     21896 TIP3     1508     TIP3     OH2      OT      -0.834000       15.9994           0
     21897 TIP3     1508     TIP3     H1       HT       0.417000       1.00800           0
     21898 TIP3     1508     TIP3     H2       HT       0.417000       1.00800           0
     21899 TIP3     1509     TIP3     OH2      OT      -0.834000       15.9994           0
     21900 TIP3     1509     TIP3     H1       HT       0.417000       1.00800           0
     21901 TIP3     1509     TIP3     H2       HT       0.417000       1.00800           0
     21902 TIP3     1510     TIP3     OH2      OT      -0.834000       15.9994           0
     21903 TIP3     1510     TIP3     H1       HT       0.417000       1.00800           0
     21904 TIP3     1510     TIP3     H2       HT       0.417000       1.00800           0
     21905 TIP3     1511     TIP3     OH2      OT      -0.834000       15.9994           0
     21906 TIP3     1511     TIP3     H1       HT       0.417000       1.00800           0
     21907 TIP3     1511     TIP3     H2       HT       0.417000       1.00800           0
     21908 TIP3     1512     TIP3     OH2      OT      -0.834000       15.9994           0
     21909 TIP3     1512     TIP3     H1       HT       0.417000       1.00800           0
     21910 TIP3     1512     TIP3     H2       HT       0.417000       1.00800           0
     21911 TIP3     1513     TIP3     OH2      OT      -0.834000       15.9994           0
     21912 TIP3     1513     TIP3     H1       HT       0.417000       1.00800           0
     21913 TIP3     1513     TIP3     H2       HT       0.417000       1.00800           0
     21914 TIP3     1514     TIP3     OH2      OT      -0.834000       15.9994           0
     21915 TIP3     1514     TIP3     H1       HT       0.417000       1.00800           0
     21916 TIP3     1514     TIP3     H2       HT       0.417000       1.00800           0
     21917 TIP3     1515     TIP3     OH2      OT      -0.834000       15.9994           0
     21918 TIP3     1515     TIP3     H1       HT       0.417000       1.00800           0
     21919 TIP3     1515     TIP3     H2       HT       0.417000       1.00800           0
     21920 TIP3     1516     TIP3     OH2      OT      -0.834000       15.9994           0
     21921 TIP3     1516     TIP3     H1       HT       0.417000       1.00800           0
     21922 TIP3     1516     TIP3     H2       HT       0.417000       1.00800           0
     21923 TIP3     1517     TIP3     OH2      OT      -0.834000       15.9994           0
     21924 TIP3     1517     TIP3     H1       HT       0.417000       1.00800           0
     21925 TIP3     1517     TIP3     H2       HT       0.417000       1.00800           0
     21926 TIP3     1518     TIP3     OH2      OT      -0.834000       15.9994           0
     21927 TIP3     1518     TIP3     H1       HT       0.417000       1.00800           0
     21928 TIP3     1518     TIP3     H2       HT       0.417000       1.00800           0
     21929 TIP3     1519     TIP3     OH2      OT      -0.834000       15.9994           0
     21930 TIP3     1519     TIP3     H1       HT       0.417000       1.00800           0
     21931 TIP3     1519     TIP3     H2       HT       0.417000       1.00800           0
     21932 TIP3     1520     TIP3     OH2      OT      -0.834000       15.9994           0
     21933 TIP3     1520     TIP3     H1       HT       0.417000       1.00800           0
     21934 TIP3     1520     TIP3     H2       HT       0.417000       1.00800           0
     21935 TIP3     1521     TIP3     OH2      OT      -0.834000       15.9994           0
     21936 TIP3     1521     TIP3     H1       HT       0.417000       1.00800           0
     21937 TIP3     1521     TIP3     H2       HT       0.417000       1.00800           0
     21938 TIP3     1522     TIP3     OH2      OT      -0.834000       15.9994           0
     21939 TIP3     1522     TIP3     H1       HT       0.417000       1.00800           0
     21940 TIP3     1522     TIP3     H2       HT       0.417000       1.00800           0
     21941 TIP3     1523     TIP3     OH2      OT      -0.834000       15.9994           0
     21942 TIP3     1523     TIP3     H1       HT       0.417000       1.00800           0
     21943 TIP3     1523     TIP3     H2       HT       0.417000       1.00800           0
     21944 TIP3     1524     TIP3     OH2      OT      -0.834000       15.9994           0
     21945 TIP3     1524     TIP3     H1       HT       0.417000       1.00800           0
     21946 TIP3     1524     TIP3     H2       HT       0.417000       1.00800           0
     21947 TIP3     1525     TIP3     OH2      OT      -0.834000       15.9994           0
     21948 TIP3     1525     TIP3     H1       HT       0.417000       1.00800           0
     21949 TIP3     1525     TIP3     H2       HT       0.417000       1.00800           0
     21950 TIP3     1526     TIP3     OH2      OT      -0.834000       15.9994           0
     21951 TIP3     1526     TIP3     H1       HT       0.417000       1.00800           0
     21952 TIP3     1526     TIP3     H2       HT       0.417000       1.00800           0
     21953 TIP3     1527     TIP3     OH2      OT      -0.834000       15.9994           0
     21954 TIP3     1527     TIP3     H1       HT       0.417000       1.00800           0
     21955 TIP3     1527     TIP3     H2       HT       0.417000       1.00800           0
     21956 TIP3     1528     TIP3     OH2      OT      -0.834000       15.9994           0
     21957 TIP3     1528     TIP3     H1       HT       0.417000       1.00800           0
     21958 TIP3     1528     TIP3     H2       HT       0.417000       1.00800           0
     21959 TIP3     1529     TIP3     OH2      OT      -0.834000       15.9994           0
     21960 TIP3     1529     TIP3     H1       HT       0.417000       1.00800           0
     21961 TIP3     1529     TIP3     H2       HT       0.417000       1.00800           0
     21962 TIP3     1530     TIP3     OH2      OT      -0.834000       15.9994           0
     21963 TIP3     1530     TIP3     H1       HT       0.417000       1.00800           0
     21964 TIP3     1530     TIP3     H2       HT       0.417000       1.00800           0
     21965 TIP3     1531     TIP3     OH2      OT      -0.834000       15.9994           0
     21966 TIP3     1531     TIP3     H1       HT       0.417000       1.00800           0
     21967 TIP3     1531     TIP3     H2       HT       0.417000       1.00800           0
     21968 TIP3     1532     TIP3     OH2      OT      -0.834000       15.9994           0
     21969 TIP3     1532     TIP3     H1       HT       0.417000       1.00800           0
     21970 TIP3     1532     TIP3     H2       HT       0.417000       1.00800           0
     21971 TIP3     1533     TIP3     OH2      OT      -0.834000       15.9994           0
     21972 TIP3     1533     TIP3     H1       HT       0.417000       1.00800           0
     21973 TIP3     1533     TIP3     H2       HT       0.417000       1.00800           0
     21974 TIP3     1534     TIP3     OH2      OT      -0.834000       15.9994           0
     21975 TIP3     1534     TIP3     H1       HT       0.417000       1.00800           0
     21976 TIP3     1534     TIP3     H2       HT       0.417000       1.00800           0
     21977 TIP3     1535     TIP3     OH2      OT      -0.834000       15.9994           0
     21978 TIP3     1535     TIP3     H1       HT       0.417000       1.00800           0
     21979 TIP3     1535     TIP3     H2       HT       0.417000       1.00800           0
     21980 TIP3     1536     TIP3     OH2      OT      -0.834000       15.9994           0
     21981 TIP3     1536     TIP3     H1       HT       0.417000       1.00800           0
     21982 TIP3     1536     TIP3     H2       HT       0.417000       1.00800           0
     21983 TIP3     1537     TIP3     OH2      OT      -0.834000       15.9994           0
     21984 TIP3     1537     TIP3     H1       HT       0.417000       1.00800           0
     21985 TIP3     1537     TIP3     H2       HT       0.417000       1.00800           0
     21986 TIP3     1538     TIP3     OH2      OT      -0.834000       15.9994           0
     21987 TIP3     1538     TIP3     H1       HT       0.417000       1.00800           0
     21988 TIP3     1538     TIP3     H2       HT       0.417000       1.00800           0
     21989 TIP3     1539     TIP3     OH2      OT      -0.834000       15.9994           0
     21990 TIP3     1539     TIP3     H1       HT       0.417000       1.00800           0
     21991 TIP3     1539     TIP3     H2       HT       0.417000       1.00800           0
     21992 TIP3     1540     TIP3     OH2      OT      -0.834000       15.9994           0
     21993 TIP3     1540     TIP3     H1       HT       0.417000       1.00800           0
     21994 TIP3     1540     TIP3     H2       HT       0.417000       1.00800           0
     21995 TIP3     1541     TIP3     OH2      OT      -0.834000       15.9994           0
     21996 TIP3     1541     TIP3     H1       HT       0.417000       1.00800           0
     21997 TIP3     1541     TIP3     H2       HT       0.417000       1.00800           0
     21998 TIP3     1542     TIP3     OH2      OT      -0.834000       15.9994           0
     21999 TIP3     1542     TIP3     H1       HT       0.417000       1.00800           0
     22000 TIP3     1542     TIP3     H2       HT       0.417000       1.00800           0
     22001 TIP3     1543     TIP3     OH2      OT      -0.834000       15.9994           0
     22002 TIP3     1543     TIP3     H1       HT       0.417000       1.00800           0
     22003 TIP3     1543     TIP3     H2       HT       0.417000       1.00800           0
     22004 TIP3     1544     TIP3     OH2      OT      -0.834000       15.9994           0
     22005 TIP3     1544     TIP3     H1       HT       0.417000       1.00800           0
     22006 TIP3     1544     TIP3     H2       HT       0.417000       1.00800           0
     22007 TIP3     1545     TIP3     OH2      OT      -0.834000       15.9994           0
     22008 TIP3     1545     TIP3     H1       HT       0.417000       1.00800           0
     22009 TIP3     1545     TIP3     H2       HT       0.417000       1.00800           0
     22010 TIP3     1546     TIP3     OH2      OT      -0.834000       15.9994           0
     22011 TIP3     1546     TIP3     H1       HT       0.417000       1.00800           0
     22012 TIP3     1546     TIP3     H2       HT       0.417000       1.00800           0
     22013 TIP3     1547     TIP3     OH2      OT      -0.834000       15.9994           0
     22014 TIP3     1547     TIP3     H1       HT       0.417000       1.00800           0
     22015 TIP3     1547     TIP3     H2       HT       0.417000       1.00800           0
     22016 TIP3     1548     TIP3     OH2      OT      -0.834000       15.9994           0
     22017 TIP3     1548     TIP3     H1       HT       0.417000       1.00800           0
     22018 TIP3     1548     TIP3     H2       HT       0.417000       1.00800           0
     22019 TIP3     1549     TIP3     OH2      OT      -0.834000       15.9994           0
     22020 TIP3     1549     TIP3     H1       HT       0.417000       1.00800           0
     22021 TIP3     1549     TIP3     H2       HT       0.417000       1.00800           0
     22022 TIP3     1550     TIP3     OH2      OT      -0.834000       15.9994           0
     22023 TIP3     1550     TIP3     H1       HT       0.417000       1.00800           0
     22024 TIP3     1550     TIP3     H2       HT       0.417000       1.00800           0
     22025 TIP3     1551     TIP3     OH2      OT      -0.834000       15.9994           0
     22026 TIP3     1551     TIP3     H1       HT       0.417000       1.00800           0
     22027 TIP3     1551     TIP3     H2       HT       0.417000       1.00800           0
     22028 TIP3     1552     TIP3     OH2      OT      -0.834000       15.9994           0
     22029 TIP3     1552     TIP3     H1       HT       0.417000       1.00800           0
     22030 TIP3     1552     TIP3     H2       HT       0.417000       1.00800           0
     22031 TIP3     1553     TIP3     OH2      OT      -0.834000       15.9994           0
     22032 TIP3     1553     TIP3     H1       HT       0.417000       1.00800           0
     22033 TIP3     1553     TIP3     H2       HT       0.417000       1.00800           0
     22034 TIP3     1554     TIP3     OH2      OT      -0.834000       15.9994           0
     22035 TIP3     1554     TIP3     H1       HT       0.417000       1.00800           0
     22036 TIP3     1554     TIP3     H2       HT       0.417000       1.00800           0
     22037 TIP3     1555     TIP3     OH2      OT      -0.834000       15.9994           0
     22038 TIP3     1555     TIP3     H1       HT       0.417000       1.00800           0
     22039 TIP3     1555     TIP3     H2       HT       0.417000       1.00800           0
     22040 TIP3     1556     TIP3     OH2      OT      -0.834000       15.9994           0
     22041 TIP3     1556     TIP3     H1       HT       0.417000       1.00800           0
     22042 TIP3     1556     TIP3     H2       HT       0.417000       1.00800           0
     22043 TIP3     1557     TIP3     OH2      OT      -0.834000       15.9994           0
     22044 TIP3     1557     TIP3     H1       HT       0.417000       1.00800           0
     22045 TIP3     1557     TIP3     H2       HT       0.417000       1.00800           0
     22046 TIP3     1558     TIP3     OH2      OT      -0.834000       15.9994           0
     22047 TIP3     1558     TIP3     H1       HT       0.417000       1.00800           0
     22048 TIP3     1558     TIP3     H2       HT       0.417000       1.00800           0
     22049 TIP3     1559     TIP3     OH2      OT      -0.834000       15.9994           0
     22050 TIP3     1559     TIP3     H1       HT       0.417000       1.00800           0
     22051 TIP3     1559     TIP3     H2       HT       0.417000       1.00800           0
     22052 TIP3     1560     TIP3     OH2      OT      -0.834000       15.9994           0
     22053 TIP3     1560     TIP3     H1       HT       0.417000       1.00800           0
     22054 TIP3     1560     TIP3     H2       HT       0.417000       1.00800           0
     22055 TIP3     1561     TIP3     OH2      OT      -0.834000       15.9994           0
     22056 TIP3     1561     TIP3     H1       HT       0.417000       1.00800           0
     22057 TIP3     1561     TIP3     H2       HT       0.417000       1.00800           0
     22058 TIP3     1562     TIP3     OH2      OT      -0.834000       15.9994           0
     22059 TIP3     1562     TIP3     H1       HT       0.417000       1.00800           0
     22060 TIP3     1562     TIP3     H2       HT       0.417000       1.00800           0
     22061 TIP3     1563     TIP3     OH2      OT      -0.834000       15.9994           0
     22062 TIP3     1563     TIP3     H1       HT       0.417000       1.00800           0
     22063 TIP3     1563     TIP3     H2       HT       0.417000       1.00800           0
     22064 TIP3     1564     TIP3     OH2      OT      -0.834000       15.9994           0
     22065 TIP3     1564     TIP3     H1       HT       0.417000       1.00800           0
     22066 TIP3     1564     TIP3     H2       HT       0.417000       1.00800           0
     22067 TIP3     1565     TIP3     OH2      OT      -0.834000       15.9994           0
     22068 TIP3     1565     TIP3     H1       HT       0.417000       1.00800           0
     22069 TIP3     1565     TIP3     H2       HT       0.417000       1.00800           0
     22070 TIP3     1566     TIP3     OH2      OT      -0.834000       15.9994           0
     22071 TIP3     1566     TIP3     H1       HT       0.417000       1.00800           0
     22072 TIP3     1566     TIP3     H2       HT       0.417000       1.00800           0
     22073 TIP3     1567     TIP3     OH2      OT      -0.834000       15.9994           0
     22074 TIP3     1567     TIP3     H1       HT       0.417000       1.00800           0
     22075 TIP3     1567     TIP3     H2       HT       0.417000       1.00800           0
     22076 TIP3     1568     TIP3     OH2      OT      -0.834000       15.9994           0
     22077 TIP3     1568     TIP3     H1       HT       0.417000       1.00800           0
     22078 TIP3     1568     TIP3     H2       HT       0.417000       1.00800           0
     22079 TIP3     1569     TIP3     OH2      OT      -0.834000       15.9994           0
     22080 TIP3     1569     TIP3     H1       HT       0.417000       1.00800           0
     22081 TIP3     1569     TIP3     H2       HT       0.417000       1.00800           0
     22082 TIP3     1570     TIP3     OH2      OT      -0.834000       15.9994           0
     22083 TIP3     1570     TIP3     H1       HT       0.417000       1.00800           0
     22084 TIP3     1570     TIP3     H2       HT       0.417000       1.00800           0
     22085 TIP3     1571     TIP3     OH2      OT      -0.834000       15.9994           0
     22086 TIP3     1571     TIP3     H1       HT       0.417000       1.00800           0
     22087 TIP3     1571     TIP3     H2       HT       0.417000       1.00800           0
     22088 TIP3     1572     TIP3     OH2      OT      -0.834000       15.9994           0
     22089 TIP3     1572     TIP3     H1       HT       0.417000       1.00800           0
     22090 TIP3     1572     TIP3     H2       HT       0.417000       1.00800           0
     22091 TIP3     1573     TIP3     OH2      OT      -0.834000       15.9994           0
     22092 TIP3     1573     TIP3     H1       HT       0.417000       1.00800           0
     22093 TIP3     1573     TIP3     H2       HT       0.417000       1.00800           0
     22094 TIP3     1574     TIP3     OH2      OT      -0.834000       15.9994           0
     22095 TIP3     1574     TIP3     H1       HT       0.417000       1.00800           0
     22096 TIP3     1574     TIP3     H2       HT       0.417000       1.00800           0
     22097 TIP3     1575     TIP3     OH2      OT      -0.834000       15.9994           0
     22098 TIP3     1575     TIP3     H1       HT       0.417000       1.00800           0
     22099 TIP3     1575     TIP3     H2       HT       0.417000       1.00800           0
     22100 TIP3     1576     TIP3     OH2      OT      -0.834000       15.9994           0
     22101 TIP3     1576     TIP3     H1       HT       0.417000       1.00800           0
     22102 TIP3     1576     TIP3     H2       HT       0.417000       1.00800           0
     22103 TIP3     1577     TIP3     OH2      OT      -0.834000       15.9994           0
     22104 TIP3     1577     TIP3     H1       HT       0.417000       1.00800           0
     22105 TIP3     1577     TIP3     H2       HT       0.417000       1.00800           0
     22106 TIP3     1578     TIP3     OH2      OT      -0.834000       15.9994           0
     22107 TIP3     1578     TIP3     H1       HT       0.417000       1.00800           0
     22108 TIP3     1578     TIP3     H2       HT       0.417000       1.00800           0
     22109 TIP3     1579     TIP3     OH2      OT      -0.834000       15.9994           0
     22110 TIP3     1579     TIP3     H1       HT       0.417000       1.00800           0
     22111 TIP3     1579     TIP3     H2       HT       0.417000       1.00800           0
     22112 TIP3     1580     TIP3     OH2      OT      -0.834000       15.9994           0
     22113 TIP3     1580     TIP3     H1       HT       0.417000       1.00800           0
     22114 TIP3     1580     TIP3     H2       HT       0.417000       1.00800           0
     22115 TIP3     1581     TIP3     OH2      OT      -0.834000       15.9994           0
     22116 TIP3     1581     TIP3     H1       HT       0.417000       1.00800           0
     22117 TIP3     1581     TIP3     H2       HT       0.417000       1.00800           0
     22118 TIP3     1582     TIP3     OH2      OT      -0.834000       15.9994           0
     22119 TIP3     1582     TIP3     H1       HT       0.417000       1.00800           0
     22120 TIP3     1582     TIP3     H2       HT       0.417000       1.00800           0
     22121 TIP3     1583     TIP3     OH2      OT      -0.834000       15.9994           0
     22122 TIP3     1583     TIP3     H1       HT       0.417000       1.00800           0
     22123 TIP3     1583     TIP3     H2       HT       0.417000       1.00800           0
     22124 TIP3     1584     TIP3     OH2      OT      -0.834000       15.9994           0
     22125 TIP3     1584     TIP3     H1       HT       0.417000       1.00800           0
     22126 TIP3     1584     TIP3     H2       HT       0.417000       1.00800           0
     22127 TIP3     1585     TIP3     OH2      OT      -0.834000       15.9994           0
     22128 TIP3     1585     TIP3     H1       HT       0.417000       1.00800           0
     22129 TIP3     1585     TIP3     H2       HT       0.417000       1.00800           0
     22130 TIP3     1586     TIP3     OH2      OT      -0.834000       15.9994           0
     22131 TIP3     1586     TIP3     H1       HT       0.417000       1.00800           0
     22132 TIP3     1586     TIP3     H2       HT       0.417000       1.00800           0
     22133 TIP3     1587     TIP3     OH2      OT      -0.834000       15.9994           0
     22134 TIP3     1587     TIP3     H1       HT       0.417000       1.00800           0
     22135 TIP3     1587     TIP3     H2       HT       0.417000       1.00800           0
     22136 TIP3     1588     TIP3     OH2      OT      -0.834000       15.9994           0
     22137 TIP3     1588     TIP3     H1       HT       0.417000       1.00800           0
     22138 TIP3     1588     TIP3     H2       HT       0.417000       1.00800           0
     22139 TIP3     1589     TIP3     OH2      OT      -0.834000       15.9994           0
     22140 TIP3     1589     TIP3     H1       HT       0.417000       1.00800           0
     22141 TIP3     1589     TIP3     H2       HT       0.417000       1.00800           0
     22142 TIP3     1590     TIP3     OH2      OT      -0.834000       15.9994           0
     22143 TIP3     1590     TIP3     H1       HT       0.417000       1.00800           0
     22144 TIP3     1590     TIP3     H2       HT       0.417000       1.00800           0
     22145 TIP3     1591     TIP3     OH2      OT      -0.834000       15.9994           0
     22146 TIP3     1591     TIP3     H1       HT       0.417000       1.00800           0
     22147 TIP3     1591     TIP3     H2       HT       0.417000       1.00800           0
     22148 TIP3     1592     TIP3     OH2      OT      -0.834000       15.9994           0
     22149 TIP3     1592     TIP3     H1       HT       0.417000       1.00800           0
     22150 TIP3     1592     TIP3     H2       HT       0.417000       1.00800           0
     22151 TIP3     1593     TIP3     OH2      OT      -0.834000       15.9994           0
     22152 TIP3     1593     TIP3     H1       HT       0.417000       1.00800           0
     22153 TIP3     1593     TIP3     H2       HT       0.417000       1.00800           0
     22154 TIP3     1594     TIP3     OH2      OT      -0.834000       15.9994           0
     22155 TIP3     1594     TIP3     H1       HT       0.417000       1.00800           0
     22156 TIP3     1594     TIP3     H2       HT       0.417000       1.00800           0
     22157 TIP3     1595     TIP3     OH2      OT      -0.834000       15.9994           0
     22158 TIP3     1595     TIP3     H1       HT       0.417000       1.00800           0
     22159 TIP3     1595     TIP3     H2       HT       0.417000       1.00800           0
     22160 TIP3     1596     TIP3     OH2      OT      -0.834000       15.9994           0
     22161 TIP3     1596     TIP3     H1       HT       0.417000       1.00800           0
     22162 TIP3     1596     TIP3     H2       HT       0.417000       1.00800           0
     22163 TIP3     1597     TIP3     OH2      OT      -0.834000       15.9994           0
     22164 TIP3     1597     TIP3     H1       HT       0.417000       1.00800           0
     22165 TIP3     1597     TIP3     H2       HT       0.417000       1.00800           0
     22166 TIP3     1598     TIP3     OH2      OT      -0.834000       15.9994           0
     22167 TIP3     1598     TIP3     H1       HT       0.417000       1.00800           0
     22168 TIP3     1598     TIP3     H2       HT       0.417000       1.00800           0
     22169 TIP3     1599     TIP3     OH2      OT      -0.834000       15.9994           0
     22170 TIP3     1599     TIP3     H1       HT       0.417000       1.00800           0
     22171 TIP3     1599     TIP3     H2       HT       0.417000       1.00800           0
     22172 TIP3     1600     TIP3     OH2      OT      -0.834000       15.9994           0
     22173 TIP3     1600     TIP3     H1       HT       0.417000       1.00800           0
     22174 TIP3     1600     TIP3     H2       HT       0.417000       1.00800           0
     22175 TIP3     1601     TIP3     OH2      OT      -0.834000       15.9994           0
     22176 TIP3     1601     TIP3     H1       HT       0.417000       1.00800           0
     22177 TIP3     1601     TIP3     H2       HT       0.417000       1.00800           0
     22178 TIP3     1602     TIP3     OH2      OT      -0.834000       15.9994           0
     22179 TIP3     1602     TIP3     H1       HT       0.417000       1.00800           0
     22180 TIP3     1602     TIP3     H2       HT       0.417000       1.00800           0
     22181 TIP3     1603     TIP3     OH2      OT      -0.834000       15.9994           0
     22182 TIP3     1603     TIP3     H1       HT       0.417000       1.00800           0
     22183 TIP3     1603     TIP3     H2       HT       0.417000       1.00800           0
     22184 TIP3     1604     TIP3     OH2      OT      -0.834000       15.9994           0
     22185 TIP3     1604     TIP3     H1       HT       0.417000       1.00800           0
     22186 TIP3     1604     TIP3     H2       HT       0.417000       1.00800           0
     22187 TIP3     1605     TIP3     OH2      OT      -0.834000       15.9994           0
     22188 TIP3     1605     TIP3     H1       HT       0.417000       1.00800           0
     22189 TIP3     1605     TIP3     H2       HT       0.417000       1.00800           0
     22190 TIP3     1606     TIP3     OH2      OT      -0.834000       15.9994           0
     22191 TIP3     1606     TIP3     H1       HT       0.417000       1.00800           0
     22192 TIP3     1606     TIP3     H2       HT       0.417000       1.00800           0
     22193 TIP3     1607     TIP3     OH2      OT      -0.834000       15.9994           0
     22194 TIP3     1607     TIP3     H1       HT       0.417000       1.00800           0
     22195 TIP3     1607     TIP3     H2       HT       0.417000       1.00800           0
     22196 TIP3     1608     TIP3     OH2      OT      -0.834000       15.9994           0
     22197 TIP3     1608     TIP3     H1       HT       0.417000       1.00800           0
     22198 TIP3     1608     TIP3     H2       HT       0.417000       1.00800           0
     22199 TIP3     1609     TIP3     OH2      OT      -0.834000       15.9994           0
     22200 TIP3     1609     TIP3     H1       HT       0.417000       1.00800           0
     22201 TIP3     1609     TIP3     H2       HT       0.417000       1.00800           0
     22202 TIP3     1610     TIP3     OH2      OT      -0.834000       15.9994           0
     22203 TIP3     1610     TIP3     H1       HT       0.417000       1.00800           0
     22204 TIP3     1610     TIP3     H2       HT       0.417000       1.00800           0
     22205 TIP3     1611     TIP3     OH2      OT      -0.834000       15.9994           0
     22206 TIP3     1611     TIP3     H1       HT       0.417000       1.00800           0
     22207 TIP3     1611     TIP3     H2       HT       0.417000       1.00800           0
     22208 TIP3     1612     TIP3     OH2      OT      -0.834000       15.9994           0
     22209 TIP3     1612     TIP3     H1       HT       0.417000       1.00800           0
     22210 TIP3     1612     TIP3     H2       HT       0.417000       1.00800           0
     22211 TIP3     1613     TIP3     OH2      OT      -0.834000       15.9994           0
     22212 TIP3     1613     TIP3     H1       HT       0.417000       1.00800           0
     22213 TIP3     1613     TIP3     H2       HT       0.417000       1.00800           0
     22214 TIP3     1614     TIP3     OH2      OT      -0.834000       15.9994           0
     22215 TIP3     1614     TIP3     H1       HT       0.417000       1.00800           0
     22216 TIP3     1614     TIP3     H2       HT       0.417000       1.00800           0
     22217 TIP3     1615     TIP3     OH2      OT      -0.834000       15.9994           0
     22218 TIP3     1615     TIP3     H1       HT       0.417000       1.00800           0
     22219 TIP3     1615     TIP3     H2       HT       0.417000       1.00800           0
     22220 TIP3     1616     TIP3     OH2      OT      -0.834000       15.9994           0
     22221 TIP3     1616     TIP3     H1       HT       0.417000       1.00800           0
     22222 TIP3     1616     TIP3     H2       HT       0.417000       1.00800           0
     22223 TIP3     1617     TIP3     OH2      OT      -0.834000       15.9994           0
     22224 TIP3     1617     TIP3     H1       HT       0.417000       1.00800           0
     22225 TIP3     1617     TIP3     H2       HT       0.417000       1.00800           0
     22226 TIP3     1618     TIP3     OH2      OT      -0.834000       15.9994           0
     22227 TIP3     1618     TIP3     H1       HT       0.417000       1.00800           0
     22228 TIP3     1618     TIP3     H2       HT       0.417000       1.00800           0
     22229 TIP3     1619     TIP3     OH2      OT      -0.834000       15.9994           0
     22230 TIP3     1619     TIP3     H1       HT       0.417000       1.00800           0
     22231 TIP3     1619     TIP3     H2       HT       0.417000       1.00800           0
     22232 TIP3     1620     TIP3     OH2      OT      -0.834000       15.9994           0
     22233 TIP3     1620     TIP3     H1       HT       0.417000       1.00800           0
     22234 TIP3     1620     TIP3     H2       HT       0.417000       1.00800           0
     22235 TIP3     1621     TIP3     OH2      OT      -0.834000       15.9994           0
     22236 TIP3     1621     TIP3     H1       HT       0.417000       1.00800           0
     22237 TIP3     1621     TIP3     H2       HT       0.417000       1.00800           0
     22238 TIP3     1622     TIP3     OH2      OT      -0.834000       15.9994           0
     22239 TIP3     1622     TIP3     H1       HT       0.417000       1.00800           0
     22240 TIP3     1622     TIP3     H2       HT       0.417000       1.00800           0
     22241 TIP3     1623     TIP3     OH2      OT      -0.834000       15.9994           0
     22242 TIP3     1623     TIP3     H1       HT       0.417000       1.00800           0
     22243 TIP3     1623     TIP3     H2       HT       0.417000       1.00800           0
     22244 TIP3     1624     TIP3     OH2      OT      -0.834000       15.9994           0
     22245 TIP3     1624     TIP3     H1       HT       0.417000       1.00800           0
     22246 TIP3     1624     TIP3     H2       HT       0.417000       1.00800           0
     22247 TIP3     1625     TIP3     OH2      OT      -0.834000       15.9994           0
     22248 TIP3     1625     TIP3     H1       HT       0.417000       1.00800           0
     22249 TIP3     1625     TIP3     H2       HT       0.417000       1.00800           0
     22250 TIP3     1626     TIP3     OH2      OT      -0.834000       15.9994           0
     22251 TIP3     1626     TIP3     H1       HT       0.417000       1.00800           0
     22252 TIP3     1626     TIP3     H2       HT       0.417000       1.00800           0
     22253 TIP3     1627     TIP3     OH2      OT      -0.834000       15.9994           0
     22254 TIP3     1627     TIP3     H1       HT       0.417000       1.00800           0
     22255 TIP3     1627     TIP3     H2       HT       0.417000       1.00800           0
     22256 TIP3     1628     TIP3     OH2      OT      -0.834000       15.9994           0
     22257 TIP3     1628     TIP3     H1       HT       0.417000       1.00800           0
     22258 TIP3     1628     TIP3     H2       HT       0.417000       1.00800           0
     22259 TIP3     1629     TIP3     OH2      OT      -0.834000       15.9994           0
     22260 TIP3     1629     TIP3     H1       HT       0.417000       1.00800           0
     22261 TIP3     1629     TIP3     H2       HT       0.417000       1.00800           0
     22262 TIP3     1630     TIP3     OH2      OT      -0.834000       15.9994           0
     22263 TIP3     1630     TIP3     H1       HT       0.417000       1.00800           0
     22264 TIP3     1630     TIP3     H2       HT       0.417000       1.00800           0
     22265 TIP3     1631     TIP3     OH2      OT      -0.834000       15.9994           0
     22266 TIP3     1631     TIP3     H1       HT       0.417000       1.00800           0
     22267 TIP3     1631     TIP3     H2       HT       0.417000       1.00800           0
     22268 TIP3     1632     TIP3     OH2      OT      -0.834000       15.9994           0
     22269 TIP3     1632     TIP3     H1       HT       0.417000       1.00800           0
     22270 TIP3     1632     TIP3     H2       HT       0.417000       1.00800           0
     22271 TIP3     1633     TIP3     OH2      OT      -0.834000       15.9994           0
     22272 TIP3     1633     TIP3     H1       HT       0.417000       1.00800           0
     22273 TIP3     1633     TIP3     H2       HT       0.417000       1.00800           0
     22274 TIP3     1634     TIP3     OH2      OT      -0.834000       15.9994           0
     22275 TIP3     1634     TIP3     H1       HT       0.417000       1.00800           0
     22276 TIP3     1634     TIP3     H2       HT       0.417000       1.00800           0
     22277 TIP3     1635     TIP3     OH2      OT      -0.834000       15.9994           0
     22278 TIP3     1635     TIP3     H1       HT       0.417000       1.00800           0
     22279 TIP3     1635     TIP3     H2       HT       0.417000       1.00800           0
     22280 TIP3     1636     TIP3     OH2      OT      -0.834000       15.9994           0
     22281 TIP3     1636     TIP3     H1       HT       0.417000       1.00800           0
     22282 TIP3     1636     TIP3     H2       HT       0.417000       1.00800           0
     22283 TIP3     1637     TIP3     OH2      OT      -0.834000       15.9994           0
     22284 TIP3     1637     TIP3     H1       HT       0.417000       1.00800           0
     22285 TIP3     1637     TIP3     H2       HT       0.417000       1.00800           0
     22286 TIP3     1638     TIP3     OH2      OT      -0.834000       15.9994           0
     22287 TIP3     1638     TIP3     H1       HT       0.417000       1.00800           0
     22288 TIP3     1638     TIP3     H2       HT       0.417000       1.00800           0
     22289 TIP3     1639     TIP3     OH2      OT      -0.834000       15.9994           0
     22290 TIP3     1639     TIP3     H1       HT       0.417000       1.00800           0
     22291 TIP3     1639     TIP3     H2       HT       0.417000       1.00800           0
     22292 TIP3     1640     TIP3     OH2      OT      -0.834000       15.9994           0
     22293 TIP3     1640     TIP3     H1       HT       0.417000       1.00800           0
     22294 TIP3     1640     TIP3     H2       HT       0.417000       1.00800           0
     22295 TIP3     1641     TIP3     OH2      OT      -0.834000       15.9994           0
     22296 TIP3     1641     TIP3     H1       HT       0.417000       1.00800           0
     22297 TIP3     1641     TIP3     H2       HT       0.417000       1.00800           0
     22298 TIP3     1642     TIP3     OH2      OT      -0.834000       15.9994           0
     22299 TIP3     1642     TIP3     H1       HT       0.417000       1.00800           0
     22300 TIP3     1642     TIP3     H2       HT       0.417000       1.00800           0
     22301 TIP3     1643     TIP3     OH2      OT      -0.834000       15.9994           0
     22302 TIP3     1643     TIP3     H1       HT       0.417000       1.00800           0
     22303 TIP3     1643     TIP3     H2       HT       0.417000       1.00800           0
     22304 TIP3     1644     TIP3     OH2      OT      -0.834000       15.9994           0
     22305 TIP3     1644     TIP3     H1       HT       0.417000       1.00800           0
     22306 TIP3     1644     TIP3     H2       HT       0.417000       1.00800           0
     22307 TIP3     1645     TIP3     OH2      OT      -0.834000       15.9994           0
     22308 TIP3     1645     TIP3     H1       HT       0.417000       1.00800           0
     22309 TIP3     1645     TIP3     H2       HT       0.417000       1.00800           0
     22310 TIP3     1646     TIP3     OH2      OT      -0.834000       15.9994           0
     22311 TIP3     1646     TIP3     H1       HT       0.417000       1.00800           0
     22312 TIP3     1646     TIP3     H2       HT       0.417000       1.00800           0
     22313 TIP3     1647     TIP3     OH2      OT      -0.834000       15.9994           0
     22314 TIP3     1647     TIP3     H1       HT       0.417000       1.00800           0
     22315 TIP3     1647     TIP3     H2       HT       0.417000       1.00800           0
     22316 TIP3     1648     TIP3     OH2      OT      -0.834000       15.9994           0
     22317 TIP3     1648     TIP3     H1       HT       0.417000       1.00800           0
     22318 TIP3     1648     TIP3     H2       HT       0.417000       1.00800           0
     22319 TIP3     1649     TIP3     OH2      OT      -0.834000       15.9994           0
     22320 TIP3     1649     TIP3     H1       HT       0.417000       1.00800           0
     22321 TIP3     1649     TIP3     H2       HT       0.417000       1.00800           0
     22322 TIP3     1650     TIP3     OH2      OT      -0.834000       15.9994           0
     22323 TIP3     1650     TIP3     H1       HT       0.417000       1.00800           0
     22324 TIP3     1650     TIP3     H2       HT       0.417000       1.00800           0
     22325 TIP3     1651     TIP3     OH2      OT      -0.834000       15.9994           0
     22326 TIP3     1651     TIP3     H1       HT       0.417000       1.00800           0
     22327 TIP3     1651     TIP3     H2       HT       0.417000       1.00800           0
     22328 TIP3     1652     TIP3     OH2      OT      -0.834000       15.9994           0
     22329 TIP3     1652     TIP3     H1       HT       0.417000       1.00800           0
     22330 TIP3     1652     TIP3     H2       HT       0.417000       1.00800           0
     22331 TIP3     1653     TIP3     OH2      OT      -0.834000       15.9994           0
     22332 TIP3     1653     TIP3     H1       HT       0.417000       1.00800           0
     22333 TIP3     1653     TIP3     H2       HT       0.417000       1.00800           0
     22334 TIP3     1654     TIP3     OH2      OT      -0.834000       15.9994           0
     22335 TIP3     1654     TIP3     H1       HT       0.417000       1.00800           0
     22336 TIP3     1654     TIP3     H2       HT       0.417000       1.00800           0
     22337 TIP3     1655     TIP3     OH2      OT      -0.834000       15.9994           0
     22338 TIP3     1655     TIP3     H1       HT       0.417000       1.00800           0
     22339 TIP3     1655     TIP3     H2       HT       0.417000       1.00800           0
     22340 TIP3     1656     TIP3     OH2      OT      -0.834000       15.9994           0
     22341 TIP3     1656     TIP3     H1       HT       0.417000       1.00800           0
     22342 TIP3     1656     TIP3     H2       HT       0.417000       1.00800           0
     22343 TIP3     1657     TIP3     OH2      OT      -0.834000       15.9994           0
     22344 TIP3     1657     TIP3     H1       HT       0.417000       1.00800           0
     22345 TIP3     1657     TIP3     H2       HT       0.417000       1.00800           0
     22346 TIP3     1658     TIP3     OH2      OT      -0.834000       15.9994           0
     22347 TIP3     1658     TIP3     H1       HT       0.417000       1.00800           0
     22348 TIP3     1658     TIP3     H2       HT       0.417000       1.00800           0
     22349 TIP3     1659     TIP3     OH2      OT      -0.834000       15.9994           0
     22350 TIP3     1659     TIP3     H1       HT       0.417000       1.00800           0
     22351 TIP3     1659     TIP3     H2       HT       0.417000       1.00800           0
     22352 TIP3     1660     TIP3     OH2      OT      -0.834000       15.9994           0
     22353 TIP3     1660     TIP3     H1       HT       0.417000       1.00800           0
     22354 TIP3     1660     TIP3     H2       HT       0.417000       1.00800           0
     22355 TIP3     1661     TIP3     OH2      OT      -0.834000       15.9994           0
     22356 TIP3     1661     TIP3     H1       HT       0.417000       1.00800           0
     22357 TIP3     1661     TIP3     H2       HT       0.417000       1.00800           0
     22358 TIP3     1662     TIP3     OH2      OT      -0.834000       15.9994           0
     22359 TIP3     1662     TIP3     H1       HT       0.417000       1.00800           0
     22360 TIP3     1662     TIP3     H2       HT       0.417000       1.00800           0
     22361 TIP3     1663     TIP3     OH2      OT      -0.834000       15.9994           0
     22362 TIP3     1663     TIP3     H1       HT       0.417000       1.00800           0
     22363 TIP3     1663     TIP3     H2       HT       0.417000       1.00800           0
     22364 TIP3     1664     TIP3     OH2      OT      -0.834000       15.9994           0
     22365 TIP3     1664     TIP3     H1       HT       0.417000       1.00800           0
     22366 TIP3     1664     TIP3     H2       HT       0.417000       1.00800           0
     22367 TIP3     1665     TIP3     OH2      OT      -0.834000       15.9994           0
     22368 TIP3     1665     TIP3     H1       HT       0.417000       1.00800           0
     22369 TIP3     1665     TIP3     H2       HT       0.417000       1.00800           0
     22370 TIP3     1666     TIP3     OH2      OT      -0.834000       15.9994           0
     22371 TIP3     1666     TIP3     H1       HT       0.417000       1.00800           0
     22372 TIP3     1666     TIP3     H2       HT       0.417000       1.00800           0
     22373 TIP3     1667     TIP3     OH2      OT      -0.834000       15.9994           0
     22374 TIP3     1667     TIP3     H1       HT       0.417000       1.00800           0
     22375 TIP3     1667     TIP3     H2       HT       0.417000       1.00800           0
     22376 TIP3     1668     TIP3     OH2      OT      -0.834000       15.9994           0
     22377 TIP3     1668     TIP3     H1       HT       0.417000       1.00800           0
     22378 TIP3     1668     TIP3     H2       HT       0.417000       1.00800           0
     22379 TIP3     1669     TIP3     OH2      OT      -0.834000       15.9994           0
     22380 TIP3     1669     TIP3     H1       HT       0.417000       1.00800           0
     22381 TIP3     1669     TIP3     H2       HT       0.417000       1.00800           0
     22382 TIP3     1670     TIP3     OH2      OT      -0.834000       15.9994           0
     22383 TIP3     1670     TIP3     H1       HT       0.417000       1.00800           0
     22384 TIP3     1670     TIP3     H2       HT       0.417000       1.00800           0
     22385 TIP3     1671     TIP3     OH2      OT      -0.834000       15.9994           0
     22386 TIP3     1671     TIP3     H1       HT       0.417000       1.00800           0
     22387 TIP3     1671     TIP3     H2       HT       0.417000       1.00800           0
     22388 TIP3     1672     TIP3     OH2      OT      -0.834000       15.9994           0
     22389 TIP3     1672     TIP3     H1       HT       0.417000       1.00800           0
     22390 TIP3     1672     TIP3     H2       HT       0.417000       1.00800           0
     22391 TIP3     1673     TIP3     OH2      OT      -0.834000       15.9994           0
     22392 TIP3     1673     TIP3     H1       HT       0.417000       1.00800           0
     22393 TIP3     1673     TIP3     H2       HT       0.417000       1.00800           0
     22394 TIP3     1674     TIP3     OH2      OT      -0.834000       15.9994           0
     22395 TIP3     1674     TIP3     H1       HT       0.417000       1.00800           0
     22396 TIP3     1674     TIP3     H2       HT       0.417000       1.00800           0
     22397 TIP3     1675     TIP3     OH2      OT      -0.834000       15.9994           0
     22398 TIP3     1675     TIP3     H1       HT       0.417000       1.00800           0
     22399 TIP3     1675     TIP3     H2       HT       0.417000       1.00800           0
     22400 TIP3     1676     TIP3     OH2      OT      -0.834000       15.9994           0
     22401 TIP3     1676     TIP3     H1       HT       0.417000       1.00800           0
     22402 TIP3     1676     TIP3     H2       HT       0.417000       1.00800           0
     22403 TIP3     1677     TIP3     OH2      OT      -0.834000       15.9994           0
     22404 TIP3     1677     TIP3     H1       HT       0.417000       1.00800           0
     22405 TIP3     1677     TIP3     H2       HT       0.417000       1.00800           0
     22406 TIP3     1678     TIP3     OH2      OT      -0.834000       15.9994           0
     22407 TIP3     1678     TIP3     H1       HT       0.417000       1.00800           0
     22408 TIP3     1678     TIP3     H2       HT       0.417000       1.00800           0
     22409 TIP3     1679     TIP3     OH2      OT      -0.834000       15.9994           0
     22410 TIP3     1679     TIP3     H1       HT       0.417000       1.00800           0
     22411 TIP3     1679     TIP3     H2       HT       0.417000       1.00800           0
     22412 TIP3     1680     TIP3     OH2      OT      -0.834000       15.9994           0
     22413 TIP3     1680     TIP3     H1       HT       0.417000       1.00800           0
     22414 TIP3     1680     TIP3     H2       HT       0.417000       1.00800           0
     22415 TIP3     1681     TIP3     OH2      OT      -0.834000       15.9994           0
     22416 TIP3     1681     TIP3     H1       HT       0.417000       1.00800           0
     22417 TIP3     1681     TIP3     H2       HT       0.417000       1.00800           0
     22418 TIP3     1682     TIP3     OH2      OT      -0.834000       15.9994           0
     22419 TIP3     1682     TIP3     H1       HT       0.417000       1.00800           0
     22420 TIP3     1682     TIP3     H2       HT       0.417000       1.00800           0
     22421 TIP3     1683     TIP3     OH2      OT      -0.834000       15.9994           0
     22422 TIP3     1683     TIP3     H1       HT       0.417000       1.00800           0
     22423 TIP3     1683     TIP3     H2       HT       0.417000       1.00800           0
     22424 TIP3     1684     TIP3     OH2      OT      -0.834000       15.9994           0
     22425 TIP3     1684     TIP3     H1       HT       0.417000       1.00800           0
     22426 TIP3     1684     TIP3     H2       HT       0.417000       1.00800           0
     22427 TIP3     1685     TIP3     OH2      OT      -0.834000       15.9994           0
     22428 TIP3     1685     TIP3     H1       HT       0.417000       1.00800           0
     22429 TIP3     1685     TIP3     H2       HT       0.417000       1.00800           0
     22430 TIP3     1686     TIP3     OH2      OT      -0.834000       15.9994           0
     22431 TIP3     1686     TIP3     H1       HT       0.417000       1.00800           0
     22432 TIP3     1686     TIP3     H2       HT       0.417000       1.00800           0
     22433 TIP3     1687     TIP3     OH2      OT      -0.834000       15.9994           0
     22434 TIP3     1687     TIP3     H1       HT       0.417000       1.00800           0
     22435 TIP3     1687     TIP3     H2       HT       0.417000       1.00800           0
     22436 TIP3     1688     TIP3     OH2      OT      -0.834000       15.9994           0
     22437 TIP3     1688     TIP3     H1       HT       0.417000       1.00800           0
     22438 TIP3     1688     TIP3     H2       HT       0.417000       1.00800           0
     22439 TIP3     1689     TIP3     OH2      OT      -0.834000       15.9994           0
     22440 TIP3     1689     TIP3     H1       HT       0.417000       1.00800           0
     22441 TIP3     1689     TIP3     H2       HT       0.417000       1.00800           0
     22442 TIP3     1690     TIP3     OH2      OT      -0.834000       15.9994           0
     22443 TIP3     1690     TIP3     H1       HT       0.417000       1.00800           0
     22444 TIP3     1690     TIP3     H2       HT       0.417000       1.00800           0
     22445 TIP3     1691     TIP3     OH2      OT      -0.834000       15.9994           0
     22446 TIP3     1691     TIP3     H1       HT       0.417000       1.00800           0
     22447 TIP3     1691     TIP3     H2       HT       0.417000       1.00800           0
     22448 TIP3     1692     TIP3     OH2      OT      -0.834000       15.9994           0
     22449 TIP3     1692     TIP3     H1       HT       0.417000       1.00800           0
     22450 TIP3     1692     TIP3     H2       HT       0.417000       1.00800           0
     22451 TIP3     1693     TIP3     OH2      OT      -0.834000       15.9994           0
     22452 TIP3     1693     TIP3     H1       HT       0.417000       1.00800           0
     22453 TIP3     1693     TIP3     H2       HT       0.417000       1.00800           0
     22454 TIP3     1694     TIP3     OH2      OT      -0.834000       15.9994           0
     22455 TIP3     1694     TIP3     H1       HT       0.417000       1.00800           0
     22456 TIP3     1694     TIP3     H2       HT       0.417000       1.00800           0
     22457 TIP3     1695     TIP3     OH2      OT      -0.834000       15.9994           0
     22458 TIP3     1695     TIP3     H1       HT       0.417000       1.00800           0
     22459 TIP3     1695     TIP3     H2       HT       0.417000       1.00800           0
     22460 TIP3     1696     TIP3     OH2      OT      -0.834000       15.9994           0
     22461 TIP3     1696     TIP3     H1       HT       0.417000       1.00800           0
     22462 TIP3     1696     TIP3     H2       HT       0.417000       1.00800           0
     22463 TIP3     1697     TIP3     OH2      OT      -0.834000       15.9994           0
     22464 TIP3     1697     TIP3     H1       HT       0.417000       1.00800           0
     22465 TIP3     1697     TIP3     H2       HT       0.417000       1.00800           0
     22466 TIP3     1698     TIP3     OH2      OT      -0.834000       15.9994           0
     22467 TIP3     1698     TIP3     H1       HT       0.417000       1.00800           0
     22468 TIP3     1698     TIP3     H2       HT       0.417000       1.00800           0
     22469 TIP3     1699     TIP3     OH2      OT      -0.834000       15.9994           0
     22470 TIP3     1699     TIP3     H1       HT       0.417000       1.00800           0
     22471 TIP3     1699     TIP3     H2       HT       0.417000       1.00800           0
     22472 TIP3     1700     TIP3     OH2      OT      -0.834000       15.9994           0
     22473 TIP3     1700     TIP3     H1       HT       0.417000       1.00800           0
     22474 TIP3     1700     TIP3     H2       HT       0.417000       1.00800           0
     22475 TIP3     1701     TIP3     OH2      OT      -0.834000       15.9994           0
     22476 TIP3     1701     TIP3     H1       HT       0.417000       1.00800           0
     22477 TIP3     1701     TIP3     H2       HT       0.417000       1.00800           0
     22478 TIP3     1702     TIP3     OH2      OT      -0.834000       15.9994           0
     22479 TIP3     1702     TIP3     H1       HT       0.417000       1.00800           0
     22480 TIP3     1702     TIP3     H2       HT       0.417000       1.00800           0
     22481 TIP3     1703     TIP3     OH2      OT      -0.834000       15.9994           0
     22482 TIP3     1703     TIP3     H1       HT       0.417000       1.00800           0
     22483 TIP3     1703     TIP3     H2       HT       0.417000       1.00800           0
     22484 TIP3     1704     TIP3     OH2      OT      -0.834000       15.9994           0
     22485 TIP3     1704     TIP3     H1       HT       0.417000       1.00800           0
     22486 TIP3     1704     TIP3     H2       HT       0.417000       1.00800           0
     22487 TIP3     1705     TIP3     OH2      OT      -0.834000       15.9994           0
     22488 TIP3     1705     TIP3     H1       HT       0.417000       1.00800           0
     22489 TIP3     1705     TIP3     H2       HT       0.417000       1.00800           0
     22490 TIP3     1706     TIP3     OH2      OT      -0.834000       15.9994           0
     22491 TIP3     1706     TIP3     H1       HT       0.417000       1.00800           0
     22492 TIP3     1706     TIP3     H2       HT       0.417000       1.00800           0
     22493 TIP3     1707     TIP3     OH2      OT      -0.834000       15.9994           0
     22494 TIP3     1707     TIP3     H1       HT       0.417000       1.00800           0
     22495 TIP3     1707     TIP3     H2       HT       0.417000       1.00800           0
     22496 TIP3     1708     TIP3     OH2      OT      -0.834000       15.9994           0
     22497 TIP3     1708     TIP3     H1       HT       0.417000       1.00800           0
     22498 TIP3     1708     TIP3     H2       HT       0.417000       1.00800           0
     22499 TIP3     1709     TIP3     OH2      OT      -0.834000       15.9994           0
     22500 TIP3     1709     TIP3     H1       HT       0.417000       1.00800           0
     22501 TIP3     1709     TIP3     H2       HT       0.417000       1.00800           0
     22502 TIP3     1710     TIP3     OH2      OT      -0.834000       15.9994           0
     22503 TIP3     1710     TIP3     H1       HT       0.417000       1.00800           0
     22504 TIP3     1710     TIP3     H2       HT       0.417000       1.00800           0
     22505 TIP3     1711     TIP3     OH2      OT      -0.834000       15.9994           0
     22506 TIP3     1711     TIP3     H1       HT       0.417000       1.00800           0
     22507 TIP3     1711     TIP3     H2       HT       0.417000       1.00800           0
     22508 TIP3     1712     TIP3     OH2      OT      -0.834000       15.9994           0
     22509 TIP3     1712     TIP3     H1       HT       0.417000       1.00800           0
     22510 TIP3     1712     TIP3     H2       HT       0.417000       1.00800           0
     22511 TIP3     1713     TIP3     OH2      OT      -0.834000       15.9994           0
     22512 TIP3     1713     TIP3     H1       HT       0.417000       1.00800           0
     22513 TIP3     1713     TIP3     H2       HT       0.417000       1.00800           0
     22514 TIP3     1714     TIP3     OH2      OT      -0.834000       15.9994           0
     22515 TIP3     1714     TIP3     H1       HT       0.417000       1.00800           0
     22516 TIP3     1714     TIP3     H2       HT       0.417000       1.00800           0
     22517 TIP3     1715     TIP3     OH2      OT      -0.834000       15.9994           0
     22518 TIP3     1715     TIP3     H1       HT       0.417000       1.00800           0
     22519 TIP3     1715     TIP3     H2       HT       0.417000       1.00800           0
     22520 TIP3     1716     TIP3     OH2      OT      -0.834000       15.9994           0
     22521 TIP3     1716     TIP3     H1       HT       0.417000       1.00800           0
     22522 TIP3     1716     TIP3     H2       HT       0.417000       1.00800           0
     22523 TIP3     1717     TIP3     OH2      OT      -0.834000       15.9994           0
     22524 TIP3     1717     TIP3     H1       HT       0.417000       1.00800           0
     22525 TIP3     1717     TIP3     H2       HT       0.417000       1.00800           0
     22526 TIP3     1718     TIP3     OH2      OT      -0.834000       15.9994           0
     22527 TIP3     1718     TIP3     H1       HT       0.417000       1.00800           0
     22528 TIP3     1718     TIP3     H2       HT       0.417000       1.00800           0
     22529 TIP3     1719     TIP3     OH2      OT      -0.834000       15.9994           0
     22530 TIP3     1719     TIP3     H1       HT       0.417000       1.00800           0
     22531 TIP3     1719     TIP3     H2       HT       0.417000       1.00800           0
     22532 TIP3     1720     TIP3     OH2      OT      -0.834000       15.9994           0
     22533 TIP3     1720     TIP3     H1       HT       0.417000       1.00800           0
     22534 TIP3     1720     TIP3     H2       HT       0.417000       1.00800           0
     22535 TIP3     1721     TIP3     OH2      OT      -0.834000       15.9994           0
     22536 TIP3     1721     TIP3     H1       HT       0.417000       1.00800           0
     22537 TIP3     1721     TIP3     H2       HT       0.417000       1.00800           0
     22538 TIP3     1722     TIP3     OH2      OT      -0.834000       15.9994           0
     22539 TIP3     1722     TIP3     H1       HT       0.417000       1.00800           0
     22540 TIP3     1722     TIP3     H2       HT       0.417000       1.00800           0
     22541 TIP3     1723     TIP3     OH2      OT      -0.834000       15.9994           0
     22542 TIP3     1723     TIP3     H1       HT       0.417000       1.00800           0
     22543 TIP3     1723     TIP3     H2       HT       0.417000       1.00800           0
     22544 TIP3     1724     TIP3     OH2      OT      -0.834000       15.9994           0
     22545 TIP3     1724     TIP3     H1       HT       0.417000       1.00800           0
     22546 TIP3     1724     TIP3     H2       HT       0.417000       1.00800           0
     22547 TIP3     1725     TIP3     OH2      OT      -0.834000       15.9994           0
     22548 TIP3     1725     TIP3     H1       HT       0.417000       1.00800           0
     22549 TIP3     1725     TIP3     H2       HT       0.417000       1.00800           0
     22550 TIP3     1726     TIP3     OH2      OT      -0.834000       15.9994           0
     22551 TIP3     1726     TIP3     H1       HT       0.417000       1.00800           0
     22552 TIP3     1726     TIP3     H2       HT       0.417000       1.00800           0
     22553 TIP3     1727     TIP3     OH2      OT      -0.834000       15.9994           0
     22554 TIP3     1727     TIP3     H1       HT       0.417000       1.00800           0
     22555 TIP3     1727     TIP3     H2       HT       0.417000       1.00800           0
     22556 TIP3     1728     TIP3     OH2      OT      -0.834000       15.9994           0
     22557 TIP3     1728     TIP3     H1       HT       0.417000       1.00800           0
     22558 TIP3     1728     TIP3     H2       HT       0.417000       1.00800           0
     22559 TIP3     1729     TIP3     OH2      OT      -0.834000       15.9994           0
     22560 TIP3     1729     TIP3     H1       HT       0.417000       1.00800           0
     22561 TIP3     1729     TIP3     H2       HT       0.417000       1.00800           0
     22562 TIP3     1730     TIP3     OH2      OT      -0.834000       15.9994           0
     22563 TIP3     1730     TIP3     H1       HT       0.417000       1.00800           0
     22564 TIP3     1730     TIP3     H2       HT       0.417000       1.00800           0
     22565 TIP3     1731     TIP3     OH2      OT      -0.834000       15.9994           0
     22566 TIP3     1731     TIP3     H1       HT       0.417000       1.00800           0
     22567 TIP3     1731     TIP3     H2       HT       0.417000       1.00800           0
     22568 TIP3     1732     TIP3     OH2      OT      -0.834000       15.9994           0
     22569 TIP3     1732     TIP3     H1       HT       0.417000       1.00800           0
     22570 TIP3     1732     TIP3     H2       HT       0.417000       1.00800           0
     22571 TIP3     1733     TIP3     OH2      OT      -0.834000       15.9994           0
     22572 TIP3     1733     TIP3     H1       HT       0.417000       1.00800           0
     22573 TIP3     1733     TIP3     H2       HT       0.417000       1.00800           0
     22574 TIP3     1734     TIP3     OH2      OT      -0.834000       15.9994           0
     22575 TIP3     1734     TIP3     H1       HT       0.417000       1.00800           0
     22576 TIP3     1734     TIP3     H2       HT       0.417000       1.00800           0
     22577 TIP3     1735     TIP3     OH2      OT      -0.834000       15.9994           0
     22578 TIP3     1735     TIP3     H1       HT       0.417000       1.00800           0
     22579 TIP3     1735     TIP3     H2       HT       0.417000       1.00800           0
     22580 TIP3     1736     TIP3     OH2      OT      -0.834000       15.9994           0
     22581 TIP3     1736     TIP3     H1       HT       0.417000       1.00800           0
     22582 TIP3     1736     TIP3     H2       HT       0.417000       1.00800           0
     22583 TIP3     1737     TIP3     OH2      OT      -0.834000       15.9994           0
     22584 TIP3     1737     TIP3     H1       HT       0.417000       1.00800           0
     22585 TIP3     1737     TIP3     H2       HT       0.417000       1.00800           0
     22586 TIP3     1738     TIP3     OH2      OT      -0.834000       15.9994           0
     22587 TIP3     1738     TIP3     H1       HT       0.417000       1.00800           0
     22588 TIP3     1738     TIP3     H2       HT       0.417000       1.00800           0
     22589 TIP3     1739     TIP3     OH2      OT      -0.834000       15.9994           0
     22590 TIP3     1739     TIP3     H1       HT       0.417000       1.00800           0
     22591 TIP3     1739     TIP3     H2       HT       0.417000       1.00800           0
     22592 TIP3     1740     TIP3     OH2      OT      -0.834000       15.9994           0
     22593 TIP3     1740     TIP3     H1       HT       0.417000       1.00800           0
     22594 TIP3     1740     TIP3     H2       HT       0.417000       1.00800           0
     22595 TIP3     1741     TIP3     OH2      OT      -0.834000       15.9994           0
     22596 TIP3     1741     TIP3     H1       HT       0.417000       1.00800           0
     22597 TIP3     1741     TIP3     H2       HT       0.417000       1.00800           0
     22598 TIP3     1742     TIP3     OH2      OT      -0.834000       15.9994           0
     22599 TIP3     1742     TIP3     H1       HT       0.417000       1.00800           0
     22600 TIP3     1742     TIP3     H2       HT       0.417000       1.00800           0
     22601 TIP3     1743     TIP3     OH2      OT      -0.834000       15.9994           0
     22602 TIP3     1743     TIP3     H1       HT       0.417000       1.00800           0
     22603 TIP3     1743     TIP3     H2       HT       0.417000       1.00800           0
     22604 TIP3     1744     TIP3     OH2      OT      -0.834000       15.9994           0
     22605 TIP3     1744     TIP3     H1       HT       0.417000       1.00800           0
     22606 TIP3     1744     TIP3     H2       HT       0.417000       1.00800           0
     22607 TIP3     1745     TIP3     OH2      OT      -0.834000       15.9994           0
     22608 TIP3     1745     TIP3     H1       HT       0.417000       1.00800           0
     22609 TIP3     1745     TIP3     H2       HT       0.417000       1.00800           0
     22610 TIP3     1746     TIP3     OH2      OT      -0.834000       15.9994           0
     22611 TIP3     1746     TIP3     H1       HT       0.417000       1.00800           0
     22612 TIP3     1746     TIP3     H2       HT       0.417000       1.00800           0
     22613 TIP3     1747     TIP3     OH2      OT      -0.834000       15.9994           0
     22614 TIP3     1747     TIP3     H1       HT       0.417000       1.00800           0
     22615 TIP3     1747     TIP3     H2       HT       0.417000       1.00800           0
     22616 TIP3     1748     TIP3     OH2      OT      -0.834000       15.9994           0
     22617 TIP3     1748     TIP3     H1       HT       0.417000       1.00800           0
     22618 TIP3     1748     TIP3     H2       HT       0.417000       1.00800           0
     22619 TIP3     1749     TIP3     OH2      OT      -0.834000       15.9994           0
     22620 TIP3     1749     TIP3     H1       HT       0.417000       1.00800           0
     22621 TIP3     1749     TIP3     H2       HT       0.417000       1.00800           0
     22622 TIP3     1750     TIP3     OH2      OT      -0.834000       15.9994           0
     22623 TIP3     1750     TIP3     H1       HT       0.417000       1.00800           0
     22624 TIP3     1750     TIP3     H2       HT       0.417000       1.00800           0
     22625 TIP3     1751     TIP3     OH2      OT      -0.834000       15.9994           0
     22626 TIP3     1751     TIP3     H1       HT       0.417000       1.00800           0
     22627 TIP3     1751     TIP3     H2       HT       0.417000       1.00800           0
     22628 TIP3     1752     TIP3     OH2      OT      -0.834000       15.9994           0
     22629 TIP3     1752     TIP3     H1       HT       0.417000       1.00800           0
     22630 TIP3     1752     TIP3     H2       HT       0.417000       1.00800           0
     22631 TIP3     1753     TIP3     OH2      OT      -0.834000       15.9994           0
     22632 TIP3     1753     TIP3     H1       HT       0.417000       1.00800           0
     22633 TIP3     1753     TIP3     H2       HT       0.417000       1.00800           0
     22634 TIP3     1754     TIP3     OH2      OT      -0.834000       15.9994           0
     22635 TIP3     1754     TIP3     H1       HT       0.417000       1.00800           0
     22636 TIP3     1754     TIP3     H2       HT       0.417000       1.00800           0
     22637 TIP3     1755     TIP3     OH2      OT      -0.834000       15.9994           0
     22638 TIP3     1755     TIP3     H1       HT       0.417000       1.00800           0
     22639 TIP3     1755     TIP3     H2       HT       0.417000       1.00800           0
     22640 TIP3     1756     TIP3     OH2      OT      -0.834000       15.9994           0
     22641 TIP3     1756     TIP3     H1       HT       0.417000       1.00800           0
     22642 TIP3     1756     TIP3     H2       HT       0.417000       1.00800           0
     22643 TIP3     1757     TIP3     OH2      OT      -0.834000       15.9994           0
     22644 TIP3     1757     TIP3     H1       HT       0.417000       1.00800           0
     22645 TIP3     1757     TIP3     H2       HT       0.417000       1.00800           0
     22646 TIP3     1758     TIP3     OH2      OT      -0.834000       15.9994           0
     22647 TIP3     1758     TIP3     H1       HT       0.417000       1.00800           0
     22648 TIP3     1758     TIP3     H2       HT       0.417000       1.00800           0
     22649 TIP3     1759     TIP3     OH2      OT      -0.834000       15.9994           0
     22650 TIP3     1759     TIP3     H1       HT       0.417000       1.00800           0
     22651 TIP3     1759     TIP3     H2       HT       0.417000       1.00800           0
     22652 TIP3     1760     TIP3     OH2      OT      -0.834000       15.9994           0
     22653 TIP3     1760     TIP3     H1       HT       0.417000       1.00800           0
     22654 TIP3     1760     TIP3     H2       HT       0.417000       1.00800           0
     22655 TIP3     1761     TIP3     OH2      OT      -0.834000       15.9994           0
     22656 TIP3     1761     TIP3     H1       HT       0.417000       1.00800           0
     22657 TIP3     1761     TIP3     H2       HT       0.417000       1.00800           0
     22658 TIP3     1762     TIP3     OH2      OT      -0.834000       15.9994           0
     22659 TIP3     1762     TIP3     H1       HT       0.417000       1.00800           0
     22660 TIP3     1762     TIP3     H2       HT       0.417000       1.00800           0
     22661 TIP3     1763     TIP3     OH2      OT      -0.834000       15.9994           0
     22662 TIP3     1763     TIP3     H1       HT       0.417000       1.00800           0
     22663 TIP3     1763     TIP3     H2       HT       0.417000       1.00800           0
     22664 TIP3     1764     TIP3     OH2      OT      -0.834000       15.9994           0
     22665 TIP3     1764     TIP3     H1       HT       0.417000       1.00800           0
     22666 TIP3     1764     TIP3     H2       HT       0.417000       1.00800           0
     22667 TIP3     1765     TIP3     OH2      OT      -0.834000       15.9994           0
     22668 TIP3     1765     TIP3     H1       HT       0.417000       1.00800           0
     22669 TIP3     1765     TIP3     H2       HT       0.417000       1.00800           0
     22670 TIP3     1766     TIP3     OH2      OT      -0.834000       15.9994           0
     22671 TIP3     1766     TIP3     H1       HT       0.417000       1.00800           0
     22672 TIP3     1766     TIP3     H2       HT       0.417000       1.00800           0
     22673 TIP3     1767     TIP3     OH2      OT      -0.834000       15.9994           0
     22674 TIP3     1767     TIP3     H1       HT       0.417000       1.00800           0
     22675 TIP3     1767     TIP3     H2       HT       0.417000       1.00800           0
     22676 TIP3     1768     TIP3     OH2      OT      -0.834000       15.9994           0
     22677 TIP3     1768     TIP3     H1       HT       0.417000       1.00800           0
     22678 TIP3     1768     TIP3     H2       HT       0.417000       1.00800           0
     22679 TIP3     1769     TIP3     OH2      OT      -0.834000       15.9994           0
     22680 TIP3     1769     TIP3     H1       HT       0.417000       1.00800           0
     22681 TIP3     1769     TIP3     H2       HT       0.417000       1.00800           0
     22682 TIP3     1770     TIP3     OH2      OT      -0.834000       15.9994           0
     22683 TIP3     1770     TIP3     H1       HT       0.417000       1.00800           0
     22684 TIP3     1770     TIP3     H2       HT       0.417000       1.00800           0
     22685 TIP3     1771     TIP3     OH2      OT      -0.834000       15.9994           0
     22686 TIP3     1771     TIP3     H1       HT       0.417000       1.00800           0
     22687 TIP3     1771     TIP3     H2       HT       0.417000       1.00800           0
     22688 TIP3     1772     TIP3     OH2      OT      -0.834000       15.9994           0
     22689 TIP3     1772     TIP3     H1       HT       0.417000       1.00800           0
     22690 TIP3     1772     TIP3     H2       HT       0.417000       1.00800           0
     22691 TIP3     1773     TIP3     OH2      OT      -0.834000       15.9994           0
     22692 TIP3     1773     TIP3     H1       HT       0.417000       1.00800           0
     22693 TIP3     1773     TIP3     H2       HT       0.417000       1.00800           0
     22694 TIP3     1774     TIP3     OH2      OT      -0.834000       15.9994           0
     22695 TIP3     1774     TIP3     H1       HT       0.417000       1.00800           0
     22696 TIP3     1774     TIP3     H2       HT       0.417000       1.00800           0
     22697 TIP3     1775     TIP3     OH2      OT      -0.834000       15.9994           0
     22698 TIP3     1775     TIP3     H1       HT       0.417000       1.00800           0
     22699 TIP3     1775     TIP3     H2       HT       0.417000       1.00800           0
     22700 TIP3     1776     TIP3     OH2      OT      -0.834000       15.9994           0
     22701 TIP3     1776     TIP3     H1       HT       0.417000       1.00800           0
     22702 TIP3     1776     TIP3     H2       HT       0.417000       1.00800           0
     22703 TIP3     1777     TIP3     OH2      OT      -0.834000       15.9994           0
     22704 TIP3     1777     TIP3     H1       HT       0.417000       1.00800           0
     22705 TIP3     1777     TIP3     H2       HT       0.417000       1.00800           0
     22706 TIP3     1778     TIP3     OH2      OT      -0.834000       15.9994           0
     22707 TIP3     1778     TIP3     H1       HT       0.417000       1.00800           0
     22708 TIP3     1778     TIP3     H2       HT       0.417000       1.00800           0
     22709 TIP3     1779     TIP3     OH2      OT      -0.834000       15.9994           0
     22710 TIP3     1779     TIP3     H1       HT       0.417000       1.00800           0
     22711 TIP3     1779     TIP3     H2       HT       0.417000       1.00800           0
     22712 TIP3     1780     TIP3     OH2      OT      -0.834000       15.9994           0
     22713 TIP3     1780     TIP3     H1       HT       0.417000       1.00800           0
     22714 TIP3     1780     TIP3     H2       HT       0.417000       1.00800           0
     22715 TIP3     1781     TIP3     OH2      OT      -0.834000       15.9994           0
     22716 TIP3     1781     TIP3     H1       HT       0.417000       1.00800           0
     22717 TIP3     1781     TIP3     H2       HT       0.417000       1.00800           0
     22718 TIP3     1782     TIP3     OH2      OT      -0.834000       15.9994           0
     22719 TIP3     1782     TIP3     H1       HT       0.417000       1.00800           0
     22720 TIP3     1782     TIP3     H2       HT       0.417000       1.00800           0
     22721 TIP3     1783     TIP3     OH2      OT      -0.834000       15.9994           0
     22722 TIP3     1783     TIP3     H1       HT       0.417000       1.00800           0
     22723 TIP3     1783     TIP3     H2       HT       0.417000       1.00800           0
     22724 TIP3     1784     TIP3     OH2      OT      -0.834000       15.9994           0
     22725 TIP3     1784     TIP3     H1       HT       0.417000       1.00800           0
     22726 TIP3     1784     TIP3     H2       HT       0.417000       1.00800           0
     22727 TIP3     1785     TIP3     OH2      OT      -0.834000       15.9994           0
     22728 TIP3     1785     TIP3     H1       HT       0.417000       1.00800           0
     22729 TIP3     1785     TIP3     H2       HT       0.417000       1.00800           0
     22730 TIP3     1786     TIP3     OH2      OT      -0.834000       15.9994           0
     22731 TIP3     1786     TIP3     H1       HT       0.417000       1.00800           0
     22732 TIP3     1786     TIP3     H2       HT       0.417000       1.00800           0
     22733 TIP3     1787     TIP3     OH2      OT      -0.834000       15.9994           0
     22734 TIP3     1787     TIP3     H1       HT       0.417000       1.00800           0
     22735 TIP3     1787     TIP3     H2       HT       0.417000       1.00800           0
     22736 TIP3     1788     TIP3     OH2      OT      -0.834000       15.9994           0
     22737 TIP3     1788     TIP3     H1       HT       0.417000       1.00800           0
     22738 TIP3     1788     TIP3     H2       HT       0.417000       1.00800           0
     22739 TIP3     1789     TIP3     OH2      OT      -0.834000       15.9994           0
     22740 TIP3     1789     TIP3     H1       HT       0.417000       1.00800           0
     22741 TIP3     1789     TIP3     H2       HT       0.417000       1.00800           0
     22742 TIP3     1790     TIP3     OH2      OT      -0.834000       15.9994           0
     22743 TIP3     1790     TIP3     H1       HT       0.417000       1.00800           0
     22744 TIP3     1790     TIP3     H2       HT       0.417000       1.00800           0
     22745 TIP3     1791     TIP3     OH2      OT      -0.834000       15.9994           0
     22746 TIP3     1791     TIP3     H1       HT       0.417000       1.00800           0
     22747 TIP3     1791     TIP3     H2       HT       0.417000       1.00800           0
     22748 TIP3     1792     TIP3     OH2      OT      -0.834000       15.9994           0
     22749 TIP3     1792     TIP3     H1       HT       0.417000       1.00800           0
     22750 TIP3     1792     TIP3     H2       HT       0.417000       1.00800           0
     22751 TIP3     1793     TIP3     OH2      OT      -0.834000       15.9994           0
     22752 TIP3     1793     TIP3     H1       HT       0.417000       1.00800           0
     22753 TIP3     1793     TIP3     H2       HT       0.417000       1.00800           0
     22754 TIP3     1794     TIP3     OH2      OT      -0.834000       15.9994           0
     22755 TIP3     1794     TIP3     H1       HT       0.417000       1.00800           0
     22756 TIP3     1794     TIP3     H2       HT       0.417000       1.00800           0
     22757 TIP3     1795     TIP3     OH2      OT      -0.834000       15.9994           0
     22758 TIP3     1795     TIP3     H1       HT       0.417000       1.00800           0
     22759 TIP3     1795     TIP3     H2       HT       0.417000       1.00800           0
     22760 TIP3     1796     TIP3     OH2      OT      -0.834000       15.9994           0
     22761 TIP3     1796     TIP3     H1       HT       0.417000       1.00800           0
     22762 TIP3     1796     TIP3     H2       HT       0.417000       1.00800           0
     22763 TIP3     1797     TIP3     OH2      OT      -0.834000       15.9994           0
     22764 TIP3     1797     TIP3     H1       HT       0.417000       1.00800           0
     22765 TIP3     1797     TIP3     H2       HT       0.417000       1.00800           0
     22766 TIP3     1798     TIP3     OH2      OT      -0.834000       15.9994           0
     22767 TIP3     1798     TIP3     H1       HT       0.417000       1.00800           0
     22768 TIP3     1798     TIP3     H2       HT       0.417000       1.00800           0
     22769 TIP3     1799     TIP3     OH2      OT      -0.834000       15.9994           0
     22770 TIP3     1799     TIP3     H1       HT       0.417000       1.00800           0
     22771 TIP3     1799     TIP3     H2       HT       0.417000       1.00800           0
     22772 TIP3     1800     TIP3     OH2      OT      -0.834000       15.9994           0
     22773 TIP3     1800     TIP3     H1       HT       0.417000       1.00800           0
     22774 TIP3     1800     TIP3     H2       HT       0.417000       1.00800           0
     22775 TIP3     1801     TIP3     OH2      OT      -0.834000       15.9994           0
     22776 TIP3     1801     TIP3     H1       HT       0.417000       1.00800           0
     22777 TIP3     1801     TIP3     H2       HT       0.417000       1.00800           0
     22778 TIP3     1802     TIP3     OH2      OT      -0.834000       15.9994           0
     22779 TIP3     1802     TIP3     H1       HT       0.417000       1.00800           0
     22780 TIP3     1802     TIP3     H2       HT       0.417000       1.00800           0
     22781 TIP3     1803     TIP3     OH2      OT      -0.834000       15.9994           0
     22782 TIP3     1803     TIP3     H1       HT       0.417000       1.00800           0
     22783 TIP3     1803     TIP3     H2       HT       0.417000       1.00800           0
     22784 TIP3     1804     TIP3     OH2      OT      -0.834000       15.9994           0
     22785 TIP3     1804     TIP3     H1       HT       0.417000       1.00800           0
     22786 TIP3     1804     TIP3     H2       HT       0.417000       1.00800           0
     22787 TIP3     1805     TIP3     OH2      OT      -0.834000       15.9994           0
     22788 TIP3     1805     TIP3     H1       HT       0.417000       1.00800           0
     22789 TIP3     1805     TIP3     H2       HT       0.417000       1.00800           0
     22790 TIP3     1806     TIP3     OH2      OT      -0.834000       15.9994           0
     22791 TIP3     1806     TIP3     H1       HT       0.417000       1.00800           0
     22792 TIP3     1806     TIP3     H2       HT       0.417000       1.00800           0
     22793 TIP3     1807     TIP3     OH2      OT      -0.834000       15.9994           0
     22794 TIP3     1807     TIP3     H1       HT       0.417000       1.00800           0
     22795 TIP3     1807     TIP3     H2       HT       0.417000       1.00800           0
     22796 TIP3     1808     TIP3     OH2      OT      -0.834000       15.9994           0
     22797 TIP3     1808     TIP3     H1       HT       0.417000       1.00800           0
     22798 TIP3     1808     TIP3     H2       HT       0.417000       1.00800           0
     22799 TIP3     1809     TIP3     OH2      OT      -0.834000       15.9994           0
     22800 TIP3     1809     TIP3     H1       HT       0.417000       1.00800           0
     22801 TIP3     1809     TIP3     H2       HT       0.417000       1.00800           0
     22802 TIP3     1810     TIP3     OH2      OT      -0.834000       15.9994           0
     22803 TIP3     1810     TIP3     H1       HT       0.417000       1.00800           0
     22804 TIP3     1810     TIP3     H2       HT       0.417000       1.00800           0
     22805 TIP3     1811     TIP3     OH2      OT      -0.834000       15.9994           0
     22806 TIP3     1811     TIP3     H1       HT       0.417000       1.00800           0
     22807 TIP3     1811     TIP3     H2       HT       0.417000       1.00800           0
     22808 TIP3     1812     TIP3     OH2      OT      -0.834000       15.9994           0
     22809 TIP3     1812     TIP3     H1       HT       0.417000       1.00800           0
     22810 TIP3     1812     TIP3     H2       HT       0.417000       1.00800           0
     22811 TIP3     1813     TIP3     OH2      OT      -0.834000       15.9994           0
     22812 TIP3     1813     TIP3     H1       HT       0.417000       1.00800           0
     22813 TIP3     1813     TIP3     H2       HT       0.417000       1.00800           0
     22814 TIP3     1814     TIP3     OH2      OT      -0.834000       15.9994           0
     22815 TIP3     1814     TIP3     H1       HT       0.417000       1.00800           0
     22816 TIP3     1814     TIP3     H2       HT       0.417000       1.00800           0
     22817 TIP3     1815     TIP3     OH2      OT      -0.834000       15.9994           0
     22818 TIP3     1815     TIP3     H1       HT       0.417000       1.00800           0
     22819 TIP3     1815     TIP3     H2       HT       0.417000       1.00800           0
     22820 TIP3     1816     TIP3     OH2      OT      -0.834000       15.9994           0
     22821 TIP3     1816     TIP3     H1       HT       0.417000       1.00800           0
     22822 TIP3     1816     TIP3     H2       HT       0.417000       1.00800           0
     22823 TIP3     1817     TIP3     OH2      OT      -0.834000       15.9994           0
     22824 TIP3     1817     TIP3     H1       HT       0.417000       1.00800           0
     22825 TIP3     1817     TIP3     H2       HT       0.417000       1.00800           0
     22826 TIP3     1818     TIP3     OH2      OT      -0.834000       15.9994           0
     22827 TIP3     1818     TIP3     H1       HT       0.417000       1.00800           0
     22828 TIP3     1818     TIP3     H2       HT       0.417000       1.00800           0
     22829 TIP3     1819     TIP3     OH2      OT      -0.834000       15.9994           0
     22830 TIP3     1819     TIP3     H1       HT       0.417000       1.00800           0
     22831 TIP3     1819     TIP3     H2       HT       0.417000       1.00800           0
     22832 TIP3     1820     TIP3     OH2      OT      -0.834000       15.9994           0
     22833 TIP3     1820     TIP3     H1       HT       0.417000       1.00800           0
     22834 TIP3     1820     TIP3     H2       HT       0.417000       1.00800           0
     22835 TIP3     1821     TIP3     OH2      OT      -0.834000       15.9994           0
     22836 TIP3     1821     TIP3     H1       HT       0.417000       1.00800           0
     22837 TIP3     1821     TIP3     H2       HT       0.417000       1.00800           0
     22838 TIP3     1822     TIP3     OH2      OT      -0.834000       15.9994           0
     22839 TIP3     1822     TIP3     H1       HT       0.417000       1.00800           0
     22840 TIP3     1822     TIP3     H2       HT       0.417000       1.00800           0
     22841 TIP3     1823     TIP3     OH2      OT      -0.834000       15.9994           0
     22842 TIP3     1823     TIP3     H1       HT       0.417000       1.00800           0
     22843 TIP3     1823     TIP3     H2       HT       0.417000       1.00800           0
     22844 TIP3     1824     TIP3     OH2      OT      -0.834000       15.9994           0
     22845 TIP3     1824     TIP3     H1       HT       0.417000       1.00800           0
     22846 TIP3     1824     TIP3     H2       HT       0.417000       1.00800           0
     22847 TIP3     1825     TIP3     OH2      OT      -0.834000       15.9994           0
     22848 TIP3     1825     TIP3     H1       HT       0.417000       1.00800           0
     22849 TIP3     1825     TIP3     H2       HT       0.417000       1.00800           0
     22850 TIP3     1826     TIP3     OH2      OT      -0.834000       15.9994           0
     22851 TIP3     1826     TIP3     H1       HT       0.417000       1.00800           0
     22852 TIP3     1826     TIP3     H2       HT       0.417000       1.00800           0
     22853 TIP3     1827     TIP3     OH2      OT      -0.834000       15.9994           0
     22854 TIP3     1827     TIP3     H1       HT       0.417000       1.00800           0
     22855 TIP3     1827     TIP3     H2       HT       0.417000       1.00800           0
     22856 TIP3     1828     TIP3     OH2      OT      -0.834000       15.9994           0
     22857 TIP3     1828     TIP3     H1       HT       0.417000       1.00800           0
     22858 TIP3     1828     TIP3     H2       HT       0.417000       1.00800           0
     22859 TIP3     1829     TIP3     OH2      OT      -0.834000       15.9994           0
     22860 TIP3     1829     TIP3     H1       HT       0.417000       1.00800           0
     22861 TIP3     1829     TIP3     H2       HT       0.417000       1.00800           0
     22862 TIP3     1830     TIP3     OH2      OT      -0.834000       15.9994           0
     22863 TIP3     1830     TIP3     H1       HT       0.417000       1.00800           0
     22864 TIP3     1830     TIP3     H2       HT       0.417000       1.00800           0
     22865 TIP3     1831     TIP3     OH2      OT      -0.834000       15.9994           0
     22866 TIP3     1831     TIP3     H1       HT       0.417000       1.00800           0
     22867 TIP3     1831     TIP3     H2       HT       0.417000       1.00800           0
     22868 TIP3     1832     TIP3     OH2      OT      -0.834000       15.9994           0
     22869 TIP3     1832     TIP3     H1       HT       0.417000       1.00800           0
     22870 TIP3     1832     TIP3     H2       HT       0.417000       1.00800           0
     22871 TIP3     1833     TIP3     OH2      OT      -0.834000       15.9994           0
     22872 TIP3     1833     TIP3     H1       HT       0.417000       1.00800           0
     22873 TIP3     1833     TIP3     H2       HT       0.417000       1.00800           0
     22874 TIP3     1834     TIP3     OH2      OT      -0.834000       15.9994           0
     22875 TIP3     1834     TIP3     H1       HT       0.417000       1.00800           0
     22876 TIP3     1834     TIP3     H2       HT       0.417000       1.00800           0
     22877 TIP3     1835     TIP3     OH2      OT      -0.834000       15.9994           0
     22878 TIP3     1835     TIP3     H1       HT       0.417000       1.00800           0
     22879 TIP3     1835     TIP3     H2       HT       0.417000       1.00800           0
     22880 TIP3     1836     TIP3     OH2      OT      -0.834000       15.9994           0
     22881 TIP3     1836     TIP3     H1       HT       0.417000       1.00800           0
     22882 TIP3     1836     TIP3     H2       HT       0.417000       1.00800           0
     22883 TIP3     1837     TIP3     OH2      OT      -0.834000       15.9994           0
     22884 TIP3     1837     TIP3     H1       HT       0.417000       1.00800           0
     22885 TIP3     1837     TIP3     H2       HT       0.417000       1.00800           0
     22886 TIP3     1838     TIP3     OH2      OT      -0.834000       15.9994           0
     22887 TIP3     1838     TIP3     H1       HT       0.417000       1.00800           0
     22888 TIP3     1838     TIP3     H2       HT       0.417000       1.00800           0
     22889 TIP3     1839     TIP3     OH2      OT      -0.834000       15.9994           0
     22890 TIP3     1839     TIP3     H1       HT       0.417000       1.00800           0
     22891 TIP3     1839     TIP3     H2       HT       0.417000       1.00800           0
     22892 TIP3     1840     TIP3     OH2      OT      -0.834000       15.9994           0
     22893 TIP3     1840     TIP3     H1       HT       0.417000       1.00800           0
     22894 TIP3     1840     TIP3     H2       HT       0.417000       1.00800           0
     22895 TIP3     1841     TIP3     OH2      OT      -0.834000       15.9994           0
     22896 TIP3     1841     TIP3     H1       HT       0.417000       1.00800           0
     22897 TIP3     1841     TIP3     H2       HT       0.417000       1.00800           0
     22898 TIP3     1842     TIP3     OH2      OT      -0.834000       15.9994           0
     22899 TIP3     1842     TIP3     H1       HT       0.417000       1.00800           0
     22900 TIP3     1842     TIP3     H2       HT       0.417000       1.00800           0
     22901 TIP3     1843     TIP3     OH2      OT      -0.834000       15.9994           0
     22902 TIP3     1843     TIP3     H1       HT       0.417000       1.00800           0
     22903 TIP3     1843     TIP3     H2       HT       0.417000       1.00800           0
     22904 TIP3     1844     TIP3     OH2      OT      -0.834000       15.9994           0
     22905 TIP3     1844     TIP3     H1       HT       0.417000       1.00800           0
     22906 TIP3     1844     TIP3     H2       HT       0.417000       1.00800           0
     22907 TIP3     1845     TIP3     OH2      OT      -0.834000       15.9994           0
     22908 TIP3     1845     TIP3     H1       HT       0.417000       1.00800           0
     22909 TIP3     1845     TIP3     H2       HT       0.417000       1.00800           0
     22910 TIP3     1846     TIP3     OH2      OT      -0.834000       15.9994           0
     22911 TIP3     1846     TIP3     H1       HT       0.417000       1.00800           0
     22912 TIP3     1846     TIP3     H2       HT       0.417000       1.00800           0
     22913 TIP3     1847     TIP3     OH2      OT      -0.834000       15.9994           0
     22914 TIP3     1847     TIP3     H1       HT       0.417000       1.00800           0
     22915 TIP3     1847     TIP3     H2       HT       0.417000       1.00800           0
     22916 TIP3     1848     TIP3     OH2      OT      -0.834000       15.9994           0
     22917 TIP3     1848     TIP3     H1       HT       0.417000       1.00800           0
     22918 TIP3     1848     TIP3     H2       HT       0.417000       1.00800           0
     22919 TIP3     1849     TIP3     OH2      OT      -0.834000       15.9994           0
     22920 TIP3     1849     TIP3     H1       HT       0.417000       1.00800           0
     22921 TIP3     1849     TIP3     H2       HT       0.417000       1.00800           0
     22922 TIP3     1850     TIP3     OH2      OT      -0.834000       15.9994           0
     22923 TIP3     1850     TIP3     H1       HT       0.417000       1.00800           0
     22924 TIP3     1850     TIP3     H2       HT       0.417000       1.00800           0
     22925 TIP3     1851     TIP3     OH2      OT      -0.834000       15.9994           0
     22926 TIP3     1851     TIP3     H1       HT       0.417000       1.00800           0
     22927 TIP3     1851     TIP3     H2       HT       0.417000       1.00800           0
     22928 TIP3     1852     TIP3     OH2      OT      -0.834000       15.9994           0
     22929 TIP3     1852     TIP3     H1       HT       0.417000       1.00800           0
     22930 TIP3     1852     TIP3     H2       HT       0.417000       1.00800           0
     22931 TIP3     1853     TIP3     OH2      OT      -0.834000       15.9994           0
     22932 TIP3     1853     TIP3     H1       HT       0.417000       1.00800           0
     22933 TIP3     1853     TIP3     H2       HT       0.417000       1.00800           0
     22934 TIP3     1854     TIP3     OH2      OT      -0.834000       15.9994           0
     22935 TIP3     1854     TIP3     H1       HT       0.417000       1.00800           0
     22936 TIP3     1854     TIP3     H2       HT       0.417000       1.00800           0
     22937 TIP3     1855     TIP3     OH2      OT      -0.834000       15.9994           0
     22938 TIP3     1855     TIP3     H1       HT       0.417000       1.00800           0
     22939 TIP3     1855     TIP3     H2       HT       0.417000       1.00800           0
     22940 TIP3     1856     TIP3     OH2      OT      -0.834000       15.9994           0
     22941 TIP3     1856     TIP3     H1       HT       0.417000       1.00800           0
     22942 TIP3     1856     TIP3     H2       HT       0.417000       1.00800           0
     22943 TIP3     1857     TIP3     OH2      OT      -0.834000       15.9994           0
     22944 TIP3     1857     TIP3     H1       HT       0.417000       1.00800           0
     22945 TIP3     1857     TIP3     H2       HT       0.417000       1.00800           0
     22946 TIP3     1858     TIP3     OH2      OT      -0.834000       15.9994           0
     22947 TIP3     1858     TIP3     H1       HT       0.417000       1.00800           0
     22948 TIP3     1858     TIP3     H2       HT       0.417000       1.00800           0
     22949 TIP3     1859     TIP3     OH2      OT      -0.834000       15.9994           0
     22950 TIP3     1859     TIP3     H1       HT       0.417000       1.00800           0
     22951 TIP3     1859     TIP3     H2       HT       0.417000       1.00800           0
     22952 TIP3     1860     TIP3     OH2      OT      -0.834000       15.9994           0
     22953 TIP3     1860     TIP3     H1       HT       0.417000       1.00800           0
     22954 TIP3     1860     TIP3     H2       HT       0.417000       1.00800           0
     22955 TIP3     1861     TIP3     OH2      OT      -0.834000       15.9994           0
     22956 TIP3     1861     TIP3     H1       HT       0.417000       1.00800           0
     22957 TIP3     1861     TIP3     H2       HT       0.417000       1.00800           0
     22958 TIP3     1862     TIP3     OH2      OT      -0.834000       15.9994           0
     22959 TIP3     1862     TIP3     H1       HT       0.417000       1.00800           0
     22960 TIP3     1862     TIP3     H2       HT       0.417000       1.00800           0
     22961 TIP3     1863     TIP3     OH2      OT      -0.834000       15.9994           0
     22962 TIP3     1863     TIP3     H1       HT       0.417000       1.00800           0
     22963 TIP3     1863     TIP3     H2       HT       0.417000       1.00800           0
     22964 TIP3     1864     TIP3     OH2      OT      -0.834000       15.9994           0
     22965 TIP3     1864     TIP3     H1       HT       0.417000       1.00800           0
     22966 TIP3     1864     TIP3     H2       HT       0.417000       1.00800           0
     22967 TIP3     1865     TIP3     OH2      OT      -0.834000       15.9994           0
     22968 TIP3     1865     TIP3     H1       HT       0.417000       1.00800           0
     22969 TIP3     1865     TIP3     H2       HT       0.417000       1.00800           0
     22970 TIP3     1866     TIP3     OH2      OT      -0.834000       15.9994           0
     22971 TIP3     1866     TIP3     H1       HT       0.417000       1.00800           0
     22972 TIP3     1866     TIP3     H2       HT       0.417000       1.00800           0
     22973 TIP3     1867     TIP3     OH2      OT      -0.834000       15.9994           0
     22974 TIP3     1867     TIP3     H1       HT       0.417000       1.00800           0
     22975 TIP3     1867     TIP3     H2       HT       0.417000       1.00800           0
     22976 TIP3     1868     TIP3     OH2      OT      -0.834000       15.9994           0
     22977 TIP3     1868     TIP3     H1       HT       0.417000       1.00800           0
     22978 TIP3     1868     TIP3     H2       HT       0.417000       1.00800           0
     22979 TIP3     1869     TIP3     OH2      OT      -0.834000       15.9994           0
     22980 TIP3     1869     TIP3     H1       HT       0.417000       1.00800           0
     22981 TIP3     1869     TIP3     H2       HT       0.417000       1.00800           0
     22982 TIP3     1870     TIP3     OH2      OT      -0.834000       15.9994           0
     22983 TIP3     1870     TIP3     H1       HT       0.417000       1.00800           0
     22984 TIP3     1870     TIP3     H2       HT       0.417000       1.00800           0
     22985 TIP3     1871     TIP3     OH2      OT      -0.834000       15.9994           0
     22986 TIP3     1871     TIP3     H1       HT       0.417000       1.00800           0
     22987 TIP3     1871     TIP3     H2       HT       0.417000       1.00800           0
     22988 TIP3     1872     TIP3     OH2      OT      -0.834000       15.9994           0
     22989 TIP3     1872     TIP3     H1       HT       0.417000       1.00800           0
     22990 TIP3     1872     TIP3     H2       HT       0.417000       1.00800           0
     22991 TIP3     1873     TIP3     OH2      OT      -0.834000       15.9994           0
     22992 TIP3     1873     TIP3     H1       HT       0.417000       1.00800           0
     22993 TIP3     1873     TIP3     H2       HT       0.417000       1.00800           0
     22994 TIP3     1874     TIP3     OH2      OT      -0.834000       15.9994           0
     22995 TIP3     1874     TIP3     H1       HT       0.417000       1.00800           0
     22996 TIP3     1874     TIP3     H2       HT       0.417000       1.00800           0
     22997 TIP3     1875     TIP3     OH2      OT      -0.834000       15.9994           0
     22998 TIP3     1875     TIP3     H1       HT       0.417000       1.00800           0
     22999 TIP3     1875     TIP3     H2       HT       0.417000       1.00800           0
     23000 TIP3     1876     TIP3     OH2      OT      -0.834000       15.9994           0
     23001 TIP3     1876     TIP3     H1       HT       0.417000       1.00800           0
     23002 TIP3     1876     TIP3     H2       HT       0.417000       1.00800           0
     23003 TIP3     1877     TIP3     OH2      OT      -0.834000       15.9994           0
     23004 TIP3     1877     TIP3     H1       HT       0.417000       1.00800           0
     23005 TIP3     1877     TIP3     H2       HT       0.417000       1.00800           0
     23006 TIP3     1878     TIP3     OH2      OT      -0.834000       15.9994           0
     23007 TIP3     1878     TIP3     H1       HT       0.417000       1.00800           0
     23008 TIP3     1878     TIP3     H2       HT       0.417000       1.00800           0
     23009 TIP3     1879     TIP3     OH2      OT      -0.834000       15.9994           0
     23010 TIP3     1879     TIP3     H1       HT       0.417000       1.00800           0
     23011 TIP3     1879     TIP3     H2       HT       0.417000       1.00800           0
     23012 TIP3     1880     TIP3     OH2      OT      -0.834000       15.9994           0
     23013 TIP3     1880     TIP3     H1       HT       0.417000       1.00800           0
     23014 TIP3     1880     TIP3     H2       HT       0.417000       1.00800           0
     23015 TIP3     1881     TIP3     OH2      OT      -0.834000       15.9994           0
     23016 TIP3     1881     TIP3     H1       HT       0.417000       1.00800           0
     23017 TIP3     1881     TIP3     H2       HT       0.417000       1.00800           0
     23018 TIP3     1882     TIP3     OH2      OT      -0.834000       15.9994           0
     23019 TIP3     1882     TIP3     H1       HT       0.417000       1.00800           0
     23020 TIP3     1882     TIP3     H2       HT       0.417000       1.00800           0
     23021 TIP3     1883     TIP3     OH2      OT      -0.834000       15.9994           0
     23022 TIP3     1883     TIP3     H1       HT       0.417000       1.00800           0
     23023 TIP3     1883     TIP3     H2       HT       0.417000       1.00800           0
     23024 TIP3     1884     TIP3     OH2      OT      -0.834000       15.9994           0
     23025 TIP3     1884     TIP3     H1       HT       0.417000       1.00800           0
     23026 TIP3     1884     TIP3     H2       HT       0.417000       1.00800           0
     23027 TIP3     1885     TIP3     OH2      OT      -0.834000       15.9994           0
     23028 TIP3     1885     TIP3     H1       HT       0.417000       1.00800           0
     23029 TIP3     1885     TIP3     H2       HT       0.417000       1.00800           0
     23030 TIP3     1886     TIP3     OH2      OT      -0.834000       15.9994           0
     23031 TIP3     1886     TIP3     H1       HT       0.417000       1.00800           0
     23032 TIP3     1886     TIP3     H2       HT       0.417000       1.00800           0
     23033 TIP3     1887     TIP3     OH2      OT      -0.834000       15.9994           0
     23034 TIP3     1887     TIP3     H1       HT       0.417000       1.00800           0
     23035 TIP3     1887     TIP3     H2       HT       0.417000       1.00800           0
     23036 TIP3     1888     TIP3     OH2      OT      -0.834000       15.9994           0
     23037 TIP3     1888     TIP3     H1       HT       0.417000       1.00800           0
     23038 TIP3     1888     TIP3     H2       HT       0.417000       1.00800           0
     23039 TIP3     1889     TIP3     OH2      OT      -0.834000       15.9994           0
     23040 TIP3     1889     TIP3     H1       HT       0.417000       1.00800           0
     23041 TIP3     1889     TIP3     H2       HT       0.417000       1.00800           0
     23042 TIP3     1890     TIP3     OH2      OT      -0.834000       15.9994           0
     23043 TIP3     1890     TIP3     H1       HT       0.417000       1.00800           0
     23044 TIP3     1890     TIP3     H2       HT       0.417000       1.00800           0
     23045 TIP3     1891     TIP3     OH2      OT      -0.834000       15.9994           0
     23046 TIP3     1891     TIP3     H1       HT       0.417000       1.00800           0
     23047 TIP3     1891     TIP3     H2       HT       0.417000       1.00800           0
     23048 TIP3     1892     TIP3     OH2      OT      -0.834000       15.9994           0
     23049 TIP3     1892     TIP3     H1       HT       0.417000       1.00800           0
     23050 TIP3     1892     TIP3     H2       HT       0.417000       1.00800           0
     23051 TIP3     1893     TIP3     OH2      OT      -0.834000       15.9994           0
     23052 TIP3     1893     TIP3     H1       HT       0.417000       1.00800           0
     23053 TIP3     1893     TIP3     H2       HT       0.417000       1.00800           0
     23054 TIP3     1894     TIP3     OH2      OT      -0.834000       15.9994           0
     23055 TIP3     1894     TIP3     H1       HT       0.417000       1.00800           0
     23056 TIP3     1894     TIP3     H2       HT       0.417000       1.00800           0
     23057 TIP3     1895     TIP3     OH2      OT      -0.834000       15.9994           0
     23058 TIP3     1895     TIP3     H1       HT       0.417000       1.00800           0
     23059 TIP3     1895     TIP3     H2       HT       0.417000       1.00800           0
     23060 TIP3     1896     TIP3     OH2      OT      -0.834000       15.9994           0
     23061 TIP3     1896     TIP3     H1       HT       0.417000       1.00800           0
     23062 TIP3     1896     TIP3     H2       HT       0.417000       1.00800           0
     23063 TIP3     1897     TIP3     OH2      OT      -0.834000       15.9994           0
     23064 TIP3     1897     TIP3     H1       HT       0.417000       1.00800           0
     23065 TIP3     1897     TIP3     H2       HT       0.417000       1.00800           0
     23066 TIP3     1898     TIP3     OH2      OT      -0.834000       15.9994           0
     23067 TIP3     1898     TIP3     H1       HT       0.417000       1.00800           0
     23068 TIP3     1898     TIP3     H2       HT       0.417000       1.00800           0
     23069 TIP3     1899     TIP3     OH2      OT      -0.834000       15.9994           0
     23070 TIP3     1899     TIP3     H1       HT       0.417000       1.00800           0
     23071 TIP3     1899     TIP3     H2       HT       0.417000       1.00800           0
     23072 TIP3     1900     TIP3     OH2      OT      -0.834000       15.9994           0
     23073 TIP3     1900     TIP3     H1       HT       0.417000       1.00800           0
     23074 TIP3     1900     TIP3     H2       HT       0.417000       1.00800           0
     23075 TIP3     1901     TIP3     OH2      OT      -0.834000       15.9994           0
     23076 TIP3     1901     TIP3     H1       HT       0.417000       1.00800           0
     23077 TIP3     1901     TIP3     H2       HT       0.417000       1.00800           0
     23078 TIP3     1902     TIP3     OH2      OT      -0.834000       15.9994           0
     23079 TIP3     1902     TIP3     H1       HT       0.417000       1.00800           0
     23080 TIP3     1902     TIP3     H2       HT       0.417000       1.00800           0
     23081 TIP3     1903     TIP3     OH2      OT      -0.834000       15.9994           0
     23082 TIP3     1903     TIP3     H1       HT       0.417000       1.00800           0
     23083 TIP3     1903     TIP3     H2       HT       0.417000       1.00800           0
     23084 TIP3     1904     TIP3     OH2      OT      -0.834000       15.9994           0
     23085 TIP3     1904     TIP3     H1       HT       0.417000       1.00800           0
     23086 TIP3     1904     TIP3     H2       HT       0.417000       1.00800           0
     23087 TIP3     1905     TIP3     OH2      OT      -0.834000       15.9994           0
     23088 TIP3     1905     TIP3     H1       HT       0.417000       1.00800           0
     23089 TIP3     1905     TIP3     H2       HT       0.417000       1.00800           0
     23090 TIP3     1906     TIP3     OH2      OT      -0.834000       15.9994           0
     23091 TIP3     1906     TIP3     H1       HT       0.417000       1.00800           0
     23092 TIP3     1906     TIP3     H2       HT       0.417000       1.00800           0
     23093 TIP3     1907     TIP3     OH2      OT      -0.834000       15.9994           0
     23094 TIP3     1907     TIP3     H1       HT       0.417000       1.00800           0
     23095 TIP3     1907     TIP3     H2       HT       0.417000       1.00800           0
     23096 TIP3     1908     TIP3     OH2      OT      -0.834000       15.9994           0
     23097 TIP3     1908     TIP3     H1       HT       0.417000       1.00800           0
     23098 TIP3     1908     TIP3     H2       HT       0.417000       1.00800           0
     23099 TIP3     1909     TIP3     OH2      OT      -0.834000       15.9994           0
     23100 TIP3     1909     TIP3     H1       HT       0.417000       1.00800           0
     23101 TIP3     1909     TIP3     H2       HT       0.417000       1.00800           0
     23102 TIP3     1910     TIP3     OH2      OT      -0.834000       15.9994           0
     23103 TIP3     1910     TIP3     H1       HT       0.417000       1.00800           0
     23104 TIP3     1910     TIP3     H2       HT       0.417000       1.00800           0
     23105 TIP3     1911     TIP3     OH2      OT      -0.834000       15.9994           0
     23106 TIP3     1911     TIP3     H1       HT       0.417000       1.00800           0
     23107 TIP3     1911     TIP3     H2       HT       0.417000       1.00800           0
     23108 TIP3     1912     TIP3     OH2      OT      -0.834000       15.9994           0
     23109 TIP3     1912     TIP3     H1       HT       0.417000       1.00800           0
     23110 TIP3     1912     TIP3     H2       HT       0.417000       1.00800           0
     23111 TIP3     1913     TIP3     OH2      OT      -0.834000       15.9994           0
     23112 TIP3     1913     TIP3     H1       HT       0.417000       1.00800           0
     23113 TIP3     1913     TIP3     H2       HT       0.417000       1.00800           0
     23114 TIP3     1914     TIP3     OH2      OT      -0.834000       15.9994           0
     23115 TIP3     1914     TIP3     H1       HT       0.417000       1.00800           0
     23116 TIP3     1914     TIP3     H2       HT       0.417000       1.00800           0
     23117 TIP3     1915     TIP3     OH2      OT      -0.834000       15.9994           0
     23118 TIP3     1915     TIP3     H1       HT       0.417000       1.00800           0
     23119 TIP3     1915     TIP3     H2       HT       0.417000       1.00800           0
     23120 TIP3     1916     TIP3     OH2      OT      -0.834000       15.9994           0
     23121 TIP3     1916     TIP3     H1       HT       0.417000       1.00800           0
     23122 TIP3     1916     TIP3     H2       HT       0.417000       1.00800           0
     23123 TIP3     1917     TIP3     OH2      OT      -0.834000       15.9994           0
     23124 TIP3     1917     TIP3     H1       HT       0.417000       1.00800           0
     23125 TIP3     1917     TIP3     H2       HT       0.417000       1.00800           0
     23126 TIP3     1918     TIP3     OH2      OT      -0.834000       15.9994           0
     23127 TIP3     1918     TIP3     H1       HT       0.417000       1.00800           0
     23128 TIP3     1918     TIP3     H2       HT       0.417000       1.00800           0
     23129 TIP3     1919     TIP3     OH2      OT      -0.834000       15.9994           0
     23130 TIP3     1919     TIP3     H1       HT       0.417000       1.00800           0
     23131 TIP3     1919     TIP3     H2       HT       0.417000       1.00800           0
     23132 TIP3     1920     TIP3     OH2      OT      -0.834000       15.9994           0
     23133 TIP3     1920     TIP3     H1       HT       0.417000       1.00800           0
     23134 TIP3     1920     TIP3     H2       HT       0.417000       1.00800           0
     23135 TIP3     1921     TIP3     OH2      OT      -0.834000       15.9994           0
     23136 TIP3     1921     TIP3     H1       HT       0.417000       1.00800           0
     23137 TIP3     1921     TIP3     H2       HT       0.417000       1.00800           0
     23138 TIP3     1922     TIP3     OH2      OT      -0.834000       15.9994           0
     23139 TIP3     1922     TIP3     H1       HT       0.417000       1.00800           0
     23140 TIP3     1922     TIP3     H2       HT       0.417000       1.00800           0
     23141 TIP3     1923     TIP3     OH2      OT      -0.834000       15.9994           0
     23142 TIP3     1923     TIP3     H1       HT       0.417000       1.00800           0
     23143 TIP3     1923     TIP3     H2       HT       0.417000       1.00800           0
     23144 TIP3     1924     TIP3     OH2      OT      -0.834000       15.9994           0
     23145 TIP3     1924     TIP3     H1       HT       0.417000       1.00800           0
     23146 TIP3     1924     TIP3     H2       HT       0.417000       1.00800           0
     23147 TIP3     1925     TIP3     OH2      OT      -0.834000       15.9994           0
     23148 TIP3     1925     TIP3     H1       HT       0.417000       1.00800           0
     23149 TIP3     1925     TIP3     H2       HT       0.417000       1.00800           0
     23150 TIP3     1926     TIP3     OH2      OT      -0.834000       15.9994           0
     23151 TIP3     1926     TIP3     H1       HT       0.417000       1.00800           0
     23152 TIP3     1926     TIP3     H2       HT       0.417000       1.00800           0
     23153 TIP3     1927     TIP3     OH2      OT      -0.834000       15.9994           0
     23154 TIP3     1927     TIP3     H1       HT       0.417000       1.00800           0
     23155 TIP3     1927     TIP3     H2       HT       0.417000       1.00800           0
     23156 TIP3     1928     TIP3     OH2      OT      -0.834000       15.9994           0
     23157 TIP3     1928     TIP3     H1       HT       0.417000       1.00800           0
     23158 TIP3     1928     TIP3     H2       HT       0.417000       1.00800           0
     23159 TIP3     1929     TIP3     OH2      OT      -0.834000       15.9994           0
     23160 TIP3     1929     TIP3     H1       HT       0.417000       1.00800           0
     23161 TIP3     1929     TIP3     H2       HT       0.417000       1.00800           0
     23162 TIP3     1930     TIP3     OH2      OT      -0.834000       15.9994           0
     23163 TIP3     1930     TIP3     H1       HT       0.417000       1.00800           0
     23164 TIP3     1930     TIP3     H2       HT       0.417000       1.00800           0
     23165 TIP3     1931     TIP3     OH2      OT      -0.834000       15.9994           0
     23166 TIP3     1931     TIP3     H1       HT       0.417000       1.00800           0
     23167 TIP3     1931     TIP3     H2       HT       0.417000       1.00800           0
     23168 TIP3     1932     TIP3     OH2      OT      -0.834000       15.9994           0
     23169 TIP3     1932     TIP3     H1       HT       0.417000       1.00800           0
     23170 TIP3     1932     TIP3     H2       HT       0.417000       1.00800           0
     23171 TIP3     1933     TIP3     OH2      OT      -0.834000       15.9994           0
     23172 TIP3     1933     TIP3     H1       HT       0.417000       1.00800           0
     23173 TIP3     1933     TIP3     H2       HT       0.417000       1.00800           0
     23174 TIP3     1934     TIP3     OH2      OT      -0.834000       15.9994           0
     23175 TIP3     1934     TIP3     H1       HT       0.417000       1.00800           0
     23176 TIP3     1934     TIP3     H2       HT       0.417000       1.00800           0
     23177 TIP3     1935     TIP3     OH2      OT      -0.834000       15.9994           0
     23178 TIP3     1935     TIP3     H1       HT       0.417000       1.00800           0
     23179 TIP3     1935     TIP3     H2       HT       0.417000       1.00800           0
     23180 TIP3     1936     TIP3     OH2      OT      -0.834000       15.9994           0
     23181 TIP3     1936     TIP3     H1       HT       0.417000       1.00800           0
     23182 TIP3     1936     TIP3     H2       HT       0.417000       1.00800           0
     23183 TIP3     1937     TIP3     OH2      OT      -0.834000       15.9994           0
     23184 TIP3     1937     TIP3     H1       HT       0.417000       1.00800           0
     23185 TIP3     1937     TIP3     H2       HT       0.417000       1.00800           0
     23186 TIP3     1938     TIP3     OH2      OT      -0.834000       15.9994           0
     23187 TIP3     1938     TIP3     H1       HT       0.417000       1.00800           0
     23188 TIP3     1938     TIP3     H2       HT       0.417000       1.00800           0
     23189 TIP3     1939     TIP3     OH2      OT      -0.834000       15.9994           0
     23190 TIP3     1939     TIP3     H1       HT       0.417000       1.00800           0
     23191 TIP3     1939     TIP3     H2       HT       0.417000       1.00800           0
     23192 TIP3     1940     TIP3     OH2      OT      -0.834000       15.9994           0
     23193 TIP3     1940     TIP3     H1       HT       0.417000       1.00800           0
     23194 TIP3     1940     TIP3     H2       HT       0.417000       1.00800           0
     23195 TIP3     1941     TIP3     OH2      OT      -0.834000       15.9994           0
     23196 TIP3     1941     TIP3     H1       HT       0.417000       1.00800           0
     23197 TIP3     1941     TIP3     H2       HT       0.417000       1.00800           0
     23198 TIP3     1942     TIP3     OH2      OT      -0.834000       15.9994           0
     23199 TIP3     1942     TIP3     H1       HT       0.417000       1.00800           0
     23200 TIP3     1942     TIP3     H2       HT       0.417000       1.00800           0
     23201 TIP3     1943     TIP3     OH2      OT      -0.834000       15.9994           0
     23202 TIP3     1943     TIP3     H1       HT       0.417000       1.00800           0
     23203 TIP3     1943     TIP3     H2       HT       0.417000       1.00800           0
     23204 TIP3     1944     TIP3     OH2      OT      -0.834000       15.9994           0
     23205 TIP3     1944     TIP3     H1       HT       0.417000       1.00800           0
     23206 TIP3     1944     TIP3     H2       HT       0.417000       1.00800           0
     23207 TIP3     1945     TIP3     OH2      OT      -0.834000       15.9994           0
     23208 TIP3     1945     TIP3     H1       HT       0.417000       1.00800           0
     23209 TIP3     1945     TIP3     H2       HT       0.417000       1.00800           0
     23210 TIP3     1946     TIP3     OH2      OT      -0.834000       15.9994           0
     23211 TIP3     1946     TIP3     H1       HT       0.417000       1.00800           0
     23212 TIP3     1946     TIP3     H2       HT       0.417000       1.00800           0
     23213 TIP3     1947     TIP3     OH2      OT      -0.834000       15.9994           0
     23214 TIP3     1947     TIP3     H1       HT       0.417000       1.00800           0
     23215 TIP3     1947     TIP3     H2       HT       0.417000       1.00800           0
     23216 TIP3     1948     TIP3     OH2      OT      -0.834000       15.9994           0
     23217 TIP3     1948     TIP3     H1       HT       0.417000       1.00800           0
     23218 TIP3     1948     TIP3     H2       HT       0.417000       1.00800           0
     23219 TIP3     1949     TIP3     OH2      OT      -0.834000       15.9994           0
     23220 TIP3     1949     TIP3     H1       HT       0.417000       1.00800           0
     23221 TIP3     1949     TIP3     H2       HT       0.417000       1.00800           0
     23222 TIP3     1950     TIP3     OH2      OT      -0.834000       15.9994           0
     23223 TIP3     1950     TIP3     H1       HT       0.417000       1.00800           0
     23224 TIP3     1950     TIP3     H2       HT       0.417000       1.00800           0
     23225 TIP3     1951     TIP3     OH2      OT      -0.834000       15.9994           0
     23226 TIP3     1951     TIP3     H1       HT       0.417000       1.00800           0
     23227 TIP3     1951     TIP3     H2       HT       0.417000       1.00800           0
     23228 TIP3     1952     TIP3     OH2      OT      -0.834000       15.9994           0
     23229 TIP3     1952     TIP3     H1       HT       0.417000       1.00800           0
     23230 TIP3     1952     TIP3     H2       HT       0.417000       1.00800           0
     23231 TIP3     1953     TIP3     OH2      OT      -0.834000       15.9994           0
     23232 TIP3     1953     TIP3     H1       HT       0.417000       1.00800           0
     23233 TIP3     1953     TIP3     H2       HT       0.417000       1.00800           0
     23234 TIP3     1954     TIP3     OH2      OT      -0.834000       15.9994           0
     23235 TIP3     1954     TIP3     H1       HT       0.417000       1.00800           0
     23236 TIP3     1954     TIP3     H2       HT       0.417000       1.00800           0
     23237 TIP3     1955     TIP3     OH2      OT      -0.834000       15.9994           0
     23238 TIP3     1955     TIP3     H1       HT       0.417000       1.00800           0
     23239 TIP3     1955     TIP3     H2       HT       0.417000       1.00800           0
     23240 TIP3     1956     TIP3     OH2      OT      -0.834000       15.9994           0
     23241 TIP3     1956     TIP3     H1       HT       0.417000       1.00800           0
     23242 TIP3     1956     TIP3     H2       HT       0.417000       1.00800           0
     23243 TIP3     1957     TIP3     OH2      OT      -0.834000       15.9994           0
     23244 TIP3     1957     TIP3     H1       HT       0.417000       1.00800           0
     23245 TIP3     1957     TIP3     H2       HT       0.417000       1.00800           0
     23246 TIP3     1958     TIP3     OH2      OT      -0.834000       15.9994           0
     23247 TIP3     1958     TIP3     H1       HT       0.417000       1.00800           0
     23248 TIP3     1958     TIP3     H2       HT       0.417000       1.00800           0
     23249 TIP3     1959     TIP3     OH2      OT      -0.834000       15.9994           0
     23250 TIP3     1959     TIP3     H1       HT       0.417000       1.00800           0
     23251 TIP3     1959     TIP3     H2       HT       0.417000       1.00800           0
     23252 TIP3     1960     TIP3     OH2      OT      -0.834000       15.9994           0
     23253 TIP3     1960     TIP3     H1       HT       0.417000       1.00800           0
     23254 TIP3     1960     TIP3     H2       HT       0.417000       1.00800           0
     23255 TIP3     1961     TIP3     OH2      OT      -0.834000       15.9994           0
     23256 TIP3     1961     TIP3     H1       HT       0.417000       1.00800           0
     23257 TIP3     1961     TIP3     H2       HT       0.417000       1.00800           0
     23258 TIP3     1962     TIP3     OH2      OT      -0.834000       15.9994           0
     23259 TIP3     1962     TIP3     H1       HT       0.417000       1.00800           0
     23260 TIP3     1962     TIP3     H2       HT       0.417000       1.00800           0
     23261 TIP3     1963     TIP3     OH2      OT      -0.834000       15.9994           0
     23262 TIP3     1963     TIP3     H1       HT       0.417000       1.00800           0
     23263 TIP3     1963     TIP3     H2       HT       0.417000       1.00800           0
     23264 TIP3     1964     TIP3     OH2      OT      -0.834000       15.9994           0
     23265 TIP3     1964     TIP3     H1       HT       0.417000       1.00800           0
     23266 TIP3     1964     TIP3     H2       HT       0.417000       1.00800           0
     23267 TIP3     1965     TIP3     OH2      OT      -0.834000       15.9994           0
     23268 TIP3     1965     TIP3     H1       HT       0.417000       1.00800           0
     23269 TIP3     1965     TIP3     H2       HT       0.417000       1.00800           0
     23270 TIP3     1966     TIP3     OH2      OT      -0.834000       15.9994           0
     23271 TIP3     1966     TIP3     H1       HT       0.417000       1.00800           0
     23272 TIP3     1966     TIP3     H2       HT       0.417000       1.00800           0
     23273 TIP3     1967     TIP3     OH2      OT      -0.834000       15.9994           0
     23274 TIP3     1967     TIP3     H1       HT       0.417000       1.00800           0
     23275 TIP3     1967     TIP3     H2       HT       0.417000       1.00800           0
     23276 TIP3     1968     TIP3     OH2      OT      -0.834000       15.9994           0
     23277 TIP3     1968     TIP3     H1       HT       0.417000       1.00800           0
     23278 TIP3     1968     TIP3     H2       HT       0.417000       1.00800           0
     23279 TIP3     1969     TIP3     OH2      OT      -0.834000       15.9994           0
     23280 TIP3     1969     TIP3     H1       HT       0.417000       1.00800           0
     23281 TIP3     1969     TIP3     H2       HT       0.417000       1.00800           0
     23282 TIP3     1970     TIP3     OH2      OT      -0.834000       15.9994           0
     23283 TIP3     1970     TIP3     H1       HT       0.417000       1.00800           0
     23284 TIP3     1970     TIP3     H2       HT       0.417000       1.00800           0
     23285 TIP3     1971     TIP3     OH2      OT      -0.834000       15.9994           0
     23286 TIP3     1971     TIP3     H1       HT       0.417000       1.00800           0
     23287 TIP3     1971     TIP3     H2       HT       0.417000       1.00800           0
     23288 TIP3     1972     TIP3     OH2      OT      -0.834000       15.9994           0
     23289 TIP3     1972     TIP3     H1       HT       0.417000       1.00800           0
     23290 TIP3     1972     TIP3     H2       HT       0.417000       1.00800           0
     23291 TIP3     1973     TIP3     OH2      OT      -0.834000       15.9994           0
     23292 TIP3     1973     TIP3     H1       HT       0.417000       1.00800           0
     23293 TIP3     1973     TIP3     H2       HT       0.417000       1.00800           0
     23294 TIP3     1974     TIP3     OH2      OT      -0.834000       15.9994           0
     23295 TIP3     1974     TIP3     H1       HT       0.417000       1.00800           0
     23296 TIP3     1974     TIP3     H2       HT       0.417000       1.00800           0
     23297 TIP3     1975     TIP3     OH2      OT      -0.834000       15.9994           0
     23298 TIP3     1975     TIP3     H1       HT       0.417000       1.00800           0
     23299 TIP3     1975     TIP3     H2       HT       0.417000       1.00800           0
     23300 TIP3     1976     TIP3     OH2      OT      -0.834000       15.9994           0
     23301 TIP3     1976     TIP3     H1       HT       0.417000       1.00800           0
     23302 TIP3     1976     TIP3     H2       HT       0.417000       1.00800           0
     23303 TIP3     1977     TIP3     OH2      OT      -0.834000       15.9994           0
     23304 TIP3     1977     TIP3     H1       HT       0.417000       1.00800           0
     23305 TIP3     1977     TIP3     H2       HT       0.417000       1.00800           0
     23306 TIP3     1978     TIP3     OH2      OT      -0.834000       15.9994           0
     23307 TIP3     1978     TIP3     H1       HT       0.417000       1.00800           0
     23308 TIP3     1978     TIP3     H2       HT       0.417000       1.00800           0
     23309 TIP3     1979     TIP3     OH2      OT      -0.834000       15.9994           0
     23310 TIP3     1979     TIP3     H1       HT       0.417000       1.00800           0
     23311 TIP3     1979     TIP3     H2       HT       0.417000       1.00800           0
     23312 TIP3     1980     TIP3     OH2      OT      -0.834000       15.9994           0
     23313 TIP3     1980     TIP3     H1       HT       0.417000       1.00800           0
     23314 TIP3     1980     TIP3     H2       HT       0.417000       1.00800           0
     23315 TIP3     1981     TIP3     OH2      OT      -0.834000       15.9994           0
     23316 TIP3     1981     TIP3     H1       HT       0.417000       1.00800           0
     23317 TIP3     1981     TIP3     H2       HT       0.417000       1.00800           0
     23318 TIP3     1982     TIP3     OH2      OT      -0.834000       15.9994           0
     23319 TIP3     1982     TIP3     H1       HT       0.417000       1.00800           0
     23320 TIP3     1982     TIP3     H2       HT       0.417000       1.00800           0
     23321 TIP3     1983     TIP3     OH2      OT      -0.834000       15.9994           0
     23322 TIP3     1983     TIP3     H1       HT       0.417000       1.00800           0
     23323 TIP3     1983     TIP3     H2       HT       0.417000       1.00800           0
     23324 TIP3     1984     TIP3     OH2      OT      -0.834000       15.9994           0
     23325 TIP3     1984     TIP3     H1       HT       0.417000       1.00800           0
     23326 TIP3     1984     TIP3     H2       HT       0.417000       1.00800           0
     23327 TIP3     1985     TIP3     OH2      OT      -0.834000       15.9994           0
     23328 TIP3     1985     TIP3     H1       HT       0.417000       1.00800           0
     23329 TIP3     1985     TIP3     H2       HT       0.417000       1.00800           0
     23330 TIP3     1986     TIP3     OH2      OT      -0.834000       15.9994           0
     23331 TIP3     1986     TIP3     H1       HT       0.417000       1.00800           0
     23332 TIP3     1986     TIP3     H2       HT       0.417000       1.00800           0
     23333 TIP3     1987     TIP3     OH2      OT      -0.834000       15.9994           0
     23334 TIP3     1987     TIP3     H1       HT       0.417000       1.00800           0
     23335 TIP3     1987     TIP3     H2       HT       0.417000       1.00800           0
     23336 TIP3     1988     TIP3     OH2      OT      -0.834000       15.9994           0
     23337 TIP3     1988     TIP3     H1       HT       0.417000       1.00800           0
     23338 TIP3     1988     TIP3     H2       HT       0.417000       1.00800           0
     23339 TIP3     1989     TIP3     OH2      OT      -0.834000       15.9994           0
     23340 TIP3     1989     TIP3     H1       HT       0.417000       1.00800           0
     23341 TIP3     1989     TIP3     H2       HT       0.417000       1.00800           0
     23342 TIP3     1990     TIP3     OH2      OT      -0.834000       15.9994           0
     23343 TIP3     1990     TIP3     H1       HT       0.417000       1.00800           0
     23344 TIP3     1990     TIP3     H2       HT       0.417000       1.00800           0
     23345 TIP3     1991     TIP3     OH2      OT      -0.834000       15.9994           0
     23346 TIP3     1991     TIP3     H1       HT       0.417000       1.00800           0
     23347 TIP3     1991     TIP3     H2       HT       0.417000       1.00800           0
     23348 TIP3     1992     TIP3     OH2      OT      -0.834000       15.9994           0
     23349 TIP3     1992     TIP3     H1       HT       0.417000       1.00800           0
     23350 TIP3     1992     TIP3     H2       HT       0.417000       1.00800           0
     23351 TIP3     1993     TIP3     OH2      OT      -0.834000       15.9994           0
     23352 TIP3     1993     TIP3     H1       HT       0.417000       1.00800           0
     23353 TIP3     1993     TIP3     H2       HT       0.417000       1.00800           0
     23354 TIP3     1994     TIP3     OH2      OT      -0.834000       15.9994           0
     23355 TIP3     1994     TIP3     H1       HT       0.417000       1.00800           0
     23356 TIP3     1994     TIP3     H2       HT       0.417000       1.00800           0
     23357 TIP3     1995     TIP3     OH2      OT      -0.834000       15.9994           0
     23358 TIP3     1995     TIP3     H1       HT       0.417000       1.00800           0
     23359 TIP3     1995     TIP3     H2       HT       0.417000       1.00800           0
     23360 TIP3     1996     TIP3     OH2      OT      -0.834000       15.9994           0
     23361 TIP3     1996     TIP3     H1       HT       0.417000       1.00800           0
     23362 TIP3     1996     TIP3     H2       HT       0.417000       1.00800           0
     23363 TIP3     1997     TIP3     OH2      OT      -0.834000       15.9994           0
     23364 TIP3     1997     TIP3     H1       HT       0.417000       1.00800           0
     23365 TIP3     1997     TIP3     H2       HT       0.417000       1.00800           0
     23366 TIP3     1998     TIP3     OH2      OT      -0.834000       15.9994           0
     23367 TIP3     1998     TIP3     H1       HT       0.417000       1.00800           0
     23368 TIP3     1998     TIP3     H2       HT       0.417000       1.00800           0
     23369 TIP3     1999     TIP3     OH2      OT      -0.834000       15.9994           0
     23370 TIP3     1999     TIP3     H1       HT       0.417000       1.00800           0
     23371 TIP3     1999     TIP3     H2       HT       0.417000       1.00800           0
     23372 TIP3     2000     TIP3     OH2      OT      -0.834000       15.9994           0
     23373 TIP3     2000     TIP3     H1       HT       0.417000       1.00800           0
     23374 TIP3     2000     TIP3     H2       HT       0.417000       1.00800           0
     23375 TIP3     2001     TIP3     OH2      OT      -0.834000       15.9994           0
     23376 TIP3     2001     TIP3     H1       HT       0.417000       1.00800           0
     23377 TIP3     2001     TIP3     H2       HT       0.417000       1.00800           0
     23378 TIP3     2002     TIP3     OH2      OT      -0.834000       15.9994           0
     23379 TIP3     2002     TIP3     H1       HT       0.417000       1.00800           0
     23380 TIP3     2002     TIP3     H2       HT       0.417000       1.00800           0
     23381 TIP3     2003     TIP3     OH2      OT      -0.834000       15.9994           0
     23382 TIP3     2003     TIP3     H1       HT       0.417000       1.00800           0
     23383 TIP3     2003     TIP3     H2       HT       0.417000       1.00800           0
     23384 TIP3     2004     TIP3     OH2      OT      -0.834000       15.9994           0
     23385 TIP3     2004     TIP3     H1       HT       0.417000       1.00800           0
     23386 TIP3     2004     TIP3     H2       HT       0.417000       1.00800           0
     23387 TIP3     2005     TIP3     OH2      OT      -0.834000       15.9994           0
     23388 TIP3     2005     TIP3     H1       HT       0.417000       1.00800           0
     23389 TIP3     2005     TIP3     H2       HT       0.417000       1.00800           0
     23390 TIP3     2006     TIP3     OH2      OT      -0.834000       15.9994           0
     23391 TIP3     2006     TIP3     H1       HT       0.417000       1.00800           0
     23392 TIP3     2006     TIP3     H2       HT       0.417000       1.00800           0
     23393 TIP3     2007     TIP3     OH2      OT      -0.834000       15.9994           0
     23394 TIP3     2007     TIP3     H1       HT       0.417000       1.00800           0
     23395 TIP3     2007     TIP3     H2       HT       0.417000       1.00800           0
     23396 TIP3     2008     TIP3     OH2      OT      -0.834000       15.9994           0
     23397 TIP3     2008     TIP3     H1       HT       0.417000       1.00800           0
     23398 TIP3     2008     TIP3     H2       HT       0.417000       1.00800           0
     23399 TIP3     2009     TIP3     OH2      OT      -0.834000       15.9994           0
     23400 TIP3     2009     TIP3     H1       HT       0.417000       1.00800           0
     23401 TIP3     2009     TIP3     H2       HT       0.417000       1.00800           0
     23402 TIP3     2010     TIP3     OH2      OT      -0.834000       15.9994           0
     23403 TIP3     2010     TIP3     H1       HT       0.417000       1.00800           0
     23404 TIP3     2010     TIP3     H2       HT       0.417000       1.00800           0
     23405 TIP3     2011     TIP3     OH2      OT      -0.834000       15.9994           0
     23406 TIP3     2011     TIP3     H1       HT       0.417000       1.00800           0
     23407 TIP3     2011     TIP3     H2       HT       0.417000       1.00800           0
     23408 TIP3     2012     TIP3     OH2      OT      -0.834000       15.9994           0
     23409 TIP3     2012     TIP3     H1       HT       0.417000       1.00800           0
     23410 TIP3     2012     TIP3     H2       HT       0.417000       1.00800           0
     23411 TIP3     2013     TIP3     OH2      OT      -0.834000       15.9994           0
     23412 TIP3     2013     TIP3     H1       HT       0.417000       1.00800           0
     23413 TIP3     2013     TIP3     H2       HT       0.417000       1.00800           0
     23414 TIP3     2014     TIP3     OH2      OT      -0.834000       15.9994           0
     23415 TIP3     2014     TIP3     H1       HT       0.417000       1.00800           0
     23416 TIP3     2014     TIP3     H2       HT       0.417000       1.00800           0
     23417 TIP3     2015     TIP3     OH2      OT      -0.834000       15.9994           0
     23418 TIP3     2015     TIP3     H1       HT       0.417000       1.00800           0
     23419 TIP3     2015     TIP3     H2       HT       0.417000       1.00800           0
     23420 TIP3     2016     TIP3     OH2      OT      -0.834000       15.9994           0
     23421 TIP3     2016     TIP3     H1       HT       0.417000       1.00800           0
     23422 TIP3     2016     TIP3     H2       HT       0.417000       1.00800           0
     23423 TIP3     2017     TIP3     OH2      OT      -0.834000       15.9994           0
     23424 TIP3     2017     TIP3     H1       HT       0.417000       1.00800           0
     23425 TIP3     2017     TIP3     H2       HT       0.417000       1.00800           0
     23426 TIP3     2018     TIP3     OH2      OT      -0.834000       15.9994           0
     23427 TIP3     2018     TIP3     H1       HT       0.417000       1.00800           0
     23428 TIP3     2018     TIP3     H2       HT       0.417000       1.00800           0
     23429 TIP3     2019     TIP3     OH2      OT      -0.834000       15.9994           0
     23430 TIP3     2019     TIP3     H1       HT       0.417000       1.00800           0
     23431 TIP3     2019     TIP3     H2       HT       0.417000       1.00800           0
     23432 TIP3     2020     TIP3     OH2      OT      -0.834000       15.9994           0
     23433 TIP3     2020     TIP3     H1       HT       0.417000       1.00800           0
     23434 TIP3     2020     TIP3     H2       HT       0.417000       1.00800           0
     23435 TIP3     2021     TIP3     OH2      OT      -0.834000       15.9994           0
     23436 TIP3     2021     TIP3     H1       HT       0.417000       1.00800           0
     23437 TIP3     2021     TIP3     H2       HT       0.417000       1.00800           0
     23438 TIP3     2022     TIP3     OH2      OT      -0.834000       15.9994           0
     23439 TIP3     2022     TIP3     H1       HT       0.417000       1.00800           0
     23440 TIP3     2022     TIP3     H2       HT       0.417000       1.00800           0
     23441 TIP3     2023     TIP3     OH2      OT      -0.834000       15.9994           0
     23442 TIP3     2023     TIP3     H1       HT       0.417000       1.00800           0
     23443 TIP3     2023     TIP3     H2       HT       0.417000       1.00800           0
     23444 TIP3     2024     TIP3     OH2      OT      -0.834000       15.9994           0
     23445 TIP3     2024     TIP3     H1       HT       0.417000       1.00800           0
     23446 TIP3     2024     TIP3     H2       HT       0.417000       1.00800           0
     23447 TIP3     2025     TIP3     OH2      OT      -0.834000       15.9994           0
     23448 TIP3     2025     TIP3     H1       HT       0.417000       1.00800           0
     23449 TIP3     2025     TIP3     H2       HT       0.417000       1.00800           0
     23450 TIP3     2026     TIP3     OH2      OT      -0.834000       15.9994           0
     23451 TIP3     2026     TIP3     H1       HT       0.417000       1.00800           0
     23452 TIP3     2026     TIP3     H2       HT       0.417000       1.00800           0
     23453 TIP3     2027     TIP3     OH2      OT      -0.834000       15.9994           0
     23454 TIP3     2027     TIP3     H1       HT       0.417000       1.00800           0
     23455 TIP3     2027     TIP3     H2       HT       0.417000       1.00800           0
     23456 TIP3     2028     TIP3     OH2      OT      -0.834000       15.9994           0
     23457 TIP3     2028     TIP3     H1       HT       0.417000       1.00800           0
     23458 TIP3     2028     TIP3     H2       HT       0.417000       1.00800           0
     23459 TIP3     2029     TIP3     OH2      OT      -0.834000       15.9994           0
     23460 TIP3     2029     TIP3     H1       HT       0.417000       1.00800           0
     23461 TIP3     2029     TIP3     H2       HT       0.417000       1.00800           0
     23462 TIP3     2030     TIP3     OH2      OT      -0.834000       15.9994           0
     23463 TIP3     2030     TIP3     H1       HT       0.417000       1.00800           0
     23464 TIP3     2030     TIP3     H2       HT       0.417000       1.00800           0
     23465 TIP3     2031     TIP3     OH2      OT      -0.834000       15.9994           0
     23466 TIP3     2031     TIP3     H1       HT       0.417000       1.00800           0
     23467 TIP3     2031     TIP3     H2       HT       0.417000       1.00800           0
     23468 TIP3     2032     TIP3     OH2      OT      -0.834000       15.9994           0
     23469 TIP3     2032     TIP3     H1       HT       0.417000       1.00800           0
     23470 TIP3     2032     TIP3     H2       HT       0.417000       1.00800           0
     23471 TIP3     2033     TIP3     OH2      OT      -0.834000       15.9994           0
     23472 TIP3     2033     TIP3     H1       HT       0.417000       1.00800           0
     23473 TIP3     2033     TIP3     H2       HT       0.417000       1.00800           0
     23474 TIP3     2034     TIP3     OH2      OT      -0.834000       15.9994           0
     23475 TIP3     2034     TIP3     H1       HT       0.417000       1.00800           0
     23476 TIP3     2034     TIP3     H2       HT       0.417000       1.00800           0
     23477 TIP3     2035     TIP3     OH2      OT      -0.834000       15.9994           0
     23478 TIP3     2035     TIP3     H1       HT       0.417000       1.00800           0
     23479 TIP3     2035     TIP3     H2       HT       0.417000       1.00800           0
     23480 TIP3     2036     TIP3     OH2      OT      -0.834000       15.9994           0
     23481 TIP3     2036     TIP3     H1       HT       0.417000       1.00800           0
     23482 TIP3     2036     TIP3     H2       HT       0.417000       1.00800           0
     23483 TIP3     2037     TIP3     OH2      OT      -0.834000       15.9994           0
     23484 TIP3     2037     TIP3     H1       HT       0.417000       1.00800           0
     23485 TIP3     2037     TIP3     H2       HT       0.417000       1.00800           0
     23486 TIP3     2038     TIP3     OH2      OT      -0.834000       15.9994           0
     23487 TIP3     2038     TIP3     H1       HT       0.417000       1.00800           0
     23488 TIP3     2038     TIP3     H2       HT       0.417000       1.00800           0
     23489 TIP3     2039     TIP3     OH2      OT      -0.834000       15.9994           0
     23490 TIP3     2039     TIP3     H1       HT       0.417000       1.00800           0
     23491 TIP3     2039     TIP3     H2       HT       0.417000       1.00800           0
     23492 TIP3     2040     TIP3     OH2      OT      -0.834000       15.9994           0
     23493 TIP3     2040     TIP3     H1       HT       0.417000       1.00800           0
     23494 TIP3     2040     TIP3     H2       HT       0.417000       1.00800           0
     23495 TIP3     2041     TIP3     OH2      OT      -0.834000       15.9994           0
     23496 TIP3     2041     TIP3     H1       HT       0.417000       1.00800           0
     23497 TIP3     2041     TIP3     H2       HT       0.417000       1.00800           0
     23498 TIP3     2042     TIP3     OH2      OT      -0.834000       15.9994           0
     23499 TIP3     2042     TIP3     H1       HT       0.417000       1.00800           0
     23500 TIP3     2042     TIP3     H2       HT       0.417000       1.00800           0
     23501 TIP3     2043     TIP3     OH2      OT      -0.834000       15.9994           0
     23502 TIP3     2043     TIP3     H1       HT       0.417000       1.00800           0
     23503 TIP3     2043     TIP3     H2       HT       0.417000       1.00800           0
     23504 TIP3     2044     TIP3     OH2      OT      -0.834000       15.9994           0
     23505 TIP3     2044     TIP3     H1       HT       0.417000       1.00800           0
     23506 TIP3     2044     TIP3     H2       HT       0.417000       1.00800           0
     23507 TIP3     2045     TIP3     OH2      OT      -0.834000       15.9994           0
     23508 TIP3     2045     TIP3     H1       HT       0.417000       1.00800           0
     23509 TIP3     2045     TIP3     H2       HT       0.417000       1.00800           0
     23510 TIP3     2046     TIP3     OH2      OT      -0.834000       15.9994           0
     23511 TIP3     2046     TIP3     H1       HT       0.417000       1.00800           0
     23512 TIP3     2046     TIP3     H2       HT       0.417000       1.00800           0
     23513 TIP3     2047     TIP3     OH2      OT      -0.834000       15.9994           0
     23514 TIP3     2047     TIP3     H1       HT       0.417000       1.00800           0
     23515 TIP3     2047     TIP3     H2       HT       0.417000       1.00800           0
     23516 TIP3     2048     TIP3     OH2      OT      -0.834000       15.9994           0
     23517 TIP3     2048     TIP3     H1       HT       0.417000       1.00800           0
     23518 TIP3     2048     TIP3     H2       HT       0.417000       1.00800           0
     23519 TIP3     2049     TIP3     OH2      OT      -0.834000       15.9994           0
     23520 TIP3     2049     TIP3     H1       HT       0.417000       1.00800           0
     23521 TIP3     2049     TIP3     H2       HT       0.417000       1.00800           0
     23522 TIP3     2050     TIP3     OH2      OT      -0.834000       15.9994           0
     23523 TIP3     2050     TIP3     H1       HT       0.417000       1.00800           0
     23524 TIP3     2050     TIP3     H2       HT       0.417000       1.00800           0
     23525 TIP3     2051     TIP3     OH2      OT      -0.834000       15.9994           0
     23526 TIP3     2051     TIP3     H1       HT       0.417000       1.00800           0
     23527 TIP3     2051     TIP3     H2       HT       0.417000       1.00800           0
     23528 TIP3     2052     TIP3     OH2      OT      -0.834000       15.9994           0
     23529 TIP3     2052     TIP3     H1       HT       0.417000       1.00800           0
     23530 TIP3     2052     TIP3     H2       HT       0.417000       1.00800           0
     23531 TIP3     2053     TIP3     OH2      OT      -0.834000       15.9994           0
     23532 TIP3     2053     TIP3     H1       HT       0.417000       1.00800           0
     23533 TIP3     2053     TIP3     H2       HT       0.417000       1.00800           0
     23534 TIP3     2054     TIP3     OH2      OT      -0.834000       15.9994           0
     23535 TIP3     2054     TIP3     H1       HT       0.417000       1.00800           0
     23536 TIP3     2054     TIP3     H2       HT       0.417000       1.00800           0
     23537 TIP3     2055     TIP3     OH2      OT      -0.834000       15.9994           0
     23538 TIP3     2055     TIP3     H1       HT       0.417000       1.00800           0
     23539 TIP3     2055     TIP3     H2       HT       0.417000       1.00800           0
     23540 TIP3     2056     TIP3     OH2      OT      -0.834000       15.9994           0
     23541 TIP3     2056     TIP3     H1       HT       0.417000       1.00800           0
     23542 TIP3     2056     TIP3     H2       HT       0.417000       1.00800           0
     23543 TIP3     2057     TIP3     OH2      OT      -0.834000       15.9994           0
     23544 TIP3     2057     TIP3     H1       HT       0.417000       1.00800           0
     23545 TIP3     2057     TIP3     H2       HT       0.417000       1.00800           0
     23546 TIP3     2058     TIP3     OH2      OT      -0.834000       15.9994           0
     23547 TIP3     2058     TIP3     H1       HT       0.417000       1.00800           0
     23548 TIP3     2058     TIP3     H2       HT       0.417000       1.00800           0
     23549 TIP3     2059     TIP3     OH2      OT      -0.834000       15.9994           0
     23550 TIP3     2059     TIP3     H1       HT       0.417000       1.00800           0
     23551 TIP3     2059     TIP3     H2       HT       0.417000       1.00800           0
     23552 TIP3     2060     TIP3     OH2      OT      -0.834000       15.9994           0
     23553 TIP3     2060     TIP3     H1       HT       0.417000       1.00800           0
     23554 TIP3     2060     TIP3     H2       HT       0.417000       1.00800           0
     23555 TIP3     2061     TIP3     OH2      OT      -0.834000       15.9994           0
     23556 TIP3     2061     TIP3     H1       HT       0.417000       1.00800           0
     23557 TIP3     2061     TIP3     H2       HT       0.417000       1.00800           0
     23558 TIP3     2062     TIP3     OH2      OT      -0.834000       15.9994           0
     23559 TIP3     2062     TIP3     H1       HT       0.417000       1.00800           0
     23560 TIP3     2062     TIP3     H2       HT       0.417000       1.00800           0
     23561 TIP3     2063     TIP3     OH2      OT      -0.834000       15.9994           0
     23562 TIP3     2063     TIP3     H1       HT       0.417000       1.00800           0
     23563 TIP3     2063     TIP3     H2       HT       0.417000       1.00800           0
     23564 TIP3     2064     TIP3     OH2      OT      -0.834000       15.9994           0
     23565 TIP3     2064     TIP3     H1       HT       0.417000       1.00800           0
     23566 TIP3     2064     TIP3     H2       HT       0.417000       1.00800           0
     23567 TIP3     2065     TIP3     OH2      OT      -0.834000       15.9994           0
     23568 TIP3     2065     TIP3     H1       HT       0.417000       1.00800           0
     23569 TIP3     2065     TIP3     H2       HT       0.417000       1.00800           0
     23570 TIP3     2066     TIP3     OH2      OT      -0.834000       15.9994           0
     23571 TIP3     2066     TIP3     H1       HT       0.417000       1.00800           0
     23572 TIP3     2066     TIP3     H2       HT       0.417000       1.00800           0
     23573 TIP3     2067     TIP3     OH2      OT      -0.834000       15.9994           0
     23574 TIP3     2067     TIP3     H1       HT       0.417000       1.00800           0
     23575 TIP3     2067     TIP3     H2       HT       0.417000       1.00800           0
     23576 TIP3     2068     TIP3     OH2      OT      -0.834000       15.9994           0
     23577 TIP3     2068     TIP3     H1       HT       0.417000       1.00800           0
     23578 TIP3     2068     TIP3     H2       HT       0.417000       1.00800           0
     23579 TIP3     2069     TIP3     OH2      OT      -0.834000       15.9994           0
     23580 TIP3     2069     TIP3     H1       HT       0.417000       1.00800           0
     23581 TIP3     2069     TIP3     H2       HT       0.417000       1.00800           0
     23582 TIP3     2070     TIP3     OH2      OT      -0.834000       15.9994           0
     23583 TIP3     2070     TIP3     H1       HT       0.417000       1.00800           0
     23584 TIP3     2070     TIP3     H2       HT       0.417000       1.00800           0
     23585 TIP3     2071     TIP3     OH2      OT      -0.834000       15.9994           0
     23586 TIP3     2071     TIP3     H1       HT       0.417000       1.00800           0
     23587 TIP3     2071     TIP3     H2       HT       0.417000       1.00800           0
     23588 TIP3     2072     TIP3     OH2      OT      -0.834000       15.9994           0
     23589 TIP3     2072     TIP3     H1       HT       0.417000       1.00800           0
     23590 TIP3     2072     TIP3     H2       HT       0.417000       1.00800           0
     23591 TIP3     2073     TIP3     OH2      OT      -0.834000       15.9994           0
     23592 TIP3     2073     TIP3     H1       HT       0.417000       1.00800           0
     23593 TIP3     2073     TIP3     H2       HT       0.417000       1.00800           0
     23594 TIP3     2074     TIP3     OH2      OT      -0.834000       15.9994           0
     23595 TIP3     2074     TIP3     H1       HT       0.417000       1.00800           0
     23596 TIP3     2074     TIP3     H2       HT       0.417000       1.00800           0
     23597 TIP3     2075     TIP3     OH2      OT      -0.834000       15.9994           0
     23598 TIP3     2075     TIP3     H1       HT       0.417000       1.00800           0
     23599 TIP3     2075     TIP3     H2       HT       0.417000       1.00800           0
     23600 TIP3     2076     TIP3     OH2      OT      -0.834000       15.9994           0
     23601 TIP3     2076     TIP3     H1       HT       0.417000       1.00800           0
     23602 TIP3     2076     TIP3     H2       HT       0.417000       1.00800           0
     23603 TIP3     2077     TIP3     OH2      OT      -0.834000       15.9994           0
     23604 TIP3     2077     TIP3     H1       HT       0.417000       1.00800           0
     23605 TIP3     2077     TIP3     H2       HT       0.417000       1.00800           0
     23606 TIP3     2078     TIP3     OH2      OT      -0.834000       15.9994           0
     23607 TIP3     2078     TIP3     H1       HT       0.417000       1.00800           0
     23608 TIP3     2078     TIP3     H2       HT       0.417000       1.00800           0
     23609 TIP3     2079     TIP3     OH2      OT      -0.834000       15.9994           0
     23610 TIP3     2079     TIP3     H1       HT       0.417000       1.00800           0
     23611 TIP3     2079     TIP3     H2       HT       0.417000       1.00800           0
     23612 TIP3     2080     TIP3     OH2      OT      -0.834000       15.9994           0
     23613 TIP3     2080     TIP3     H1       HT       0.417000       1.00800           0
     23614 TIP3     2080     TIP3     H2       HT       0.417000       1.00800           0
     23615 TIP3     2081     TIP3     OH2      OT      -0.834000       15.9994           0
     23616 TIP3     2081     TIP3     H1       HT       0.417000       1.00800           0
     23617 TIP3     2081     TIP3     H2       HT       0.417000       1.00800           0
     23618 TIP3     2082     TIP3     OH2      OT      -0.834000       15.9994           0
     23619 TIP3     2082     TIP3     H1       HT       0.417000       1.00800           0
     23620 TIP3     2082     TIP3     H2       HT       0.417000       1.00800           0
     23621 TIP3     2083     TIP3     OH2      OT      -0.834000       15.9994           0
     23622 TIP3     2083     TIP3     H1       HT       0.417000       1.00800           0
     23623 TIP3     2083     TIP3     H2       HT       0.417000       1.00800           0
     23624 TIP3     2084     TIP3     OH2      OT      -0.834000       15.9994           0
     23625 TIP3     2084     TIP3     H1       HT       0.417000       1.00800           0
     23626 TIP3     2084     TIP3     H2       HT       0.417000       1.00800           0
     23627 TIP3     2085     TIP3     OH2      OT      -0.834000       15.9994           0
     23628 TIP3     2085     TIP3     H1       HT       0.417000       1.00800           0
     23629 TIP3     2085     TIP3     H2       HT       0.417000       1.00800           0
     23630 TIP3     2086     TIP3     OH2      OT      -0.834000       15.9994           0
     23631 TIP3     2086     TIP3     H1       HT       0.417000       1.00800           0
     23632 TIP3     2086     TIP3     H2       HT       0.417000       1.00800           0
     23633 TIP3     2087     TIP3     OH2      OT      -0.834000       15.9994           0
     23634 TIP3     2087     TIP3     H1       HT       0.417000       1.00800           0
     23635 TIP3     2087     TIP3     H2       HT       0.417000       1.00800           0
     23636 TIP3     2088     TIP3     OH2      OT      -0.834000       15.9994           0
     23637 TIP3     2088     TIP3     H1       HT       0.417000       1.00800           0
     23638 TIP3     2088     TIP3     H2       HT       0.417000       1.00800           0
     23639 TIP3     2089     TIP3     OH2      OT      -0.834000       15.9994           0
     23640 TIP3     2089     TIP3     H1       HT       0.417000       1.00800           0
     23641 TIP3     2089     TIP3     H2       HT       0.417000       1.00800           0
     23642 TIP3     2090     TIP3     OH2      OT      -0.834000       15.9994           0
     23643 TIP3     2090     TIP3     H1       HT       0.417000       1.00800           0
     23644 TIP3     2090     TIP3     H2       HT       0.417000       1.00800           0
     23645 TIP3     2091     TIP3     OH2      OT      -0.834000       15.9994           0
     23646 TIP3     2091     TIP3     H1       HT       0.417000       1.00800           0
     23647 TIP3     2091     TIP3     H2       HT       0.417000       1.00800           0
     23648 TIP3     2092     TIP3     OH2      OT      -0.834000       15.9994           0
     23649 TIP3     2092     TIP3     H1       HT       0.417000       1.00800           0
     23650 TIP3     2092     TIP3     H2       HT       0.417000       1.00800           0
     23651 TIP3     2093     TIP3     OH2      OT      -0.834000       15.9994           0
     23652 TIP3     2093     TIP3     H1       HT       0.417000       1.00800           0
     23653 TIP3     2093     TIP3     H2       HT       0.417000       1.00800           0
     23654 TIP3     2094     TIP3     OH2      OT      -0.834000       15.9994           0
     23655 TIP3     2094     TIP3     H1       HT       0.417000       1.00800           0
     23656 TIP3     2094     TIP3     H2       HT       0.417000       1.00800           0
     23657 TIP3     2095     TIP3     OH2      OT      -0.834000       15.9994           0
     23658 TIP3     2095     TIP3     H1       HT       0.417000       1.00800           0
     23659 TIP3     2095     TIP3     H2       HT       0.417000       1.00800           0
     23660 TIP3     2096     TIP3     OH2      OT      -0.834000       15.9994           0
     23661 TIP3     2096     TIP3     H1       HT       0.417000       1.00800           0
     23662 TIP3     2096     TIP3     H2       HT       0.417000       1.00800           0
     23663 TIP3     2097     TIP3     OH2      OT      -0.834000       15.9994           0
     23664 TIP3     2097     TIP3     H1       HT       0.417000       1.00800           0
     23665 TIP3     2097     TIP3     H2       HT       0.417000       1.00800           0
     23666 TIP3     2098     TIP3     OH2      OT      -0.834000       15.9994           0
     23667 TIP3     2098     TIP3     H1       HT       0.417000       1.00800           0
     23668 TIP3     2098     TIP3     H2       HT       0.417000       1.00800           0
     23669 TIP3     2099     TIP3     OH2      OT      -0.834000       15.9994           0
     23670 TIP3     2099     TIP3     H1       HT       0.417000       1.00800           0
     23671 TIP3     2099     TIP3     H2       HT       0.417000       1.00800           0
     23672 TIP3     2100     TIP3     OH2      OT      -0.834000       15.9994           0
     23673 TIP3     2100     TIP3     H1       HT       0.417000       1.00800           0
     23674 TIP3     2100     TIP3     H2       HT       0.417000       1.00800           0
     23675 TIP3     2101     TIP3     OH2      OT      -0.834000       15.9994           0
     23676 TIP3     2101     TIP3     H1       HT       0.417000       1.00800           0
     23677 TIP3     2101     TIP3     H2       HT       0.417000       1.00800           0
     23678 TIP3     2102     TIP3     OH2      OT      -0.834000       15.9994           0
     23679 TIP3     2102     TIP3     H1       HT       0.417000       1.00800           0
     23680 TIP3     2102     TIP3     H2       HT       0.417000       1.00800           0
     23681 TIP3     2103     TIP3     OH2      OT      -0.834000       15.9994           0
     23682 TIP3     2103     TIP3     H1       HT       0.417000       1.00800           0
     23683 TIP3     2103     TIP3     H2       HT       0.417000       1.00800           0
     23684 TIP3     2104     TIP3     OH2      OT      -0.834000       15.9994           0
     23685 TIP3     2104     TIP3     H1       HT       0.417000       1.00800           0
     23686 TIP3     2104     TIP3     H2       HT       0.417000       1.00800           0
     23687 TIP3     2105     TIP3     OH2      OT      -0.834000       15.9994           0
     23688 TIP3     2105     TIP3     H1       HT       0.417000       1.00800           0
     23689 TIP3     2105     TIP3     H2       HT       0.417000       1.00800           0
     23690 TIP3     2106     TIP3     OH2      OT      -0.834000       15.9994           0
     23691 TIP3     2106     TIP3     H1       HT       0.417000       1.00800           0
     23692 TIP3     2106     TIP3     H2       HT       0.417000       1.00800           0
     23693 TIP3     2107     TIP3     OH2      OT      -0.834000       15.9994           0
     23694 TIP3     2107     TIP3     H1       HT       0.417000       1.00800           0
     23695 TIP3     2107     TIP3     H2       HT       0.417000       1.00800           0
     23696 TIP3     2108     TIP3     OH2      OT      -0.834000       15.9994           0
     23697 TIP3     2108     TIP3     H1       HT       0.417000       1.00800           0
     23698 TIP3     2108     TIP3     H2       HT       0.417000       1.00800           0
     23699 TIP3     2109     TIP3     OH2      OT      -0.834000       15.9994           0
     23700 TIP3     2109     TIP3     H1       HT       0.417000       1.00800           0
     23701 TIP3     2109     TIP3     H2       HT       0.417000       1.00800           0
     23702 TIP3     2110     TIP3     OH2      OT      -0.834000       15.9994           0
     23703 TIP3     2110     TIP3     H1       HT       0.417000       1.00800           0
     23704 TIP3     2110     TIP3     H2       HT       0.417000       1.00800           0
     23705 TIP3     2111     TIP3     OH2      OT      -0.834000       15.9994           0
     23706 TIP3     2111     TIP3     H1       HT       0.417000       1.00800           0
     23707 TIP3     2111     TIP3     H2       HT       0.417000       1.00800           0
     23708 TIP3     2112     TIP3     OH2      OT      -0.834000       15.9994           0
     23709 TIP3     2112     TIP3     H1       HT       0.417000       1.00800           0
     23710 TIP3     2112     TIP3     H2       HT       0.417000       1.00800           0
     23711 TIP3     2113     TIP3     OH2      OT      -0.834000       15.9994           0
     23712 TIP3     2113     TIP3     H1       HT       0.417000       1.00800           0
     23713 TIP3     2113     TIP3     H2       HT       0.417000       1.00800           0
     23714 TIP3     2114     TIP3     OH2      OT      -0.834000       15.9994           0
     23715 TIP3     2114     TIP3     H1       HT       0.417000       1.00800           0
     23716 TIP3     2114     TIP3     H2       HT       0.417000       1.00800           0
     23717 TIP3     2115     TIP3     OH2      OT      -0.834000       15.9994           0
     23718 TIP3     2115     TIP3     H1       HT       0.417000       1.00800           0
     23719 TIP3     2115     TIP3     H2       HT       0.417000       1.00800           0
     23720 TIP3     2116     TIP3     OH2      OT      -0.834000       15.9994           0
     23721 TIP3     2116     TIP3     H1       HT       0.417000       1.00800           0
     23722 TIP3     2116     TIP3     H2       HT       0.417000       1.00800           0
     23723 TIP3     2117     TIP3     OH2      OT      -0.834000       15.9994           0
     23724 TIP3     2117     TIP3     H1       HT       0.417000       1.00800           0
     23725 TIP3     2117     TIP3     H2       HT       0.417000       1.00800           0
     23726 TIP3     2118     TIP3     OH2      OT      -0.834000       15.9994           0
     23727 TIP3     2118     TIP3     H1       HT       0.417000       1.00800           0
     23728 TIP3     2118     TIP3     H2       HT       0.417000       1.00800           0
     23729 TIP3     2119     TIP3     OH2      OT      -0.834000       15.9994           0
     23730 TIP3     2119     TIP3     H1       HT       0.417000       1.00800           0
     23731 TIP3     2119     TIP3     H2       HT       0.417000       1.00800           0
     23732 TIP3     2120     TIP3     OH2      OT      -0.834000       15.9994           0
     23733 TIP3     2120     TIP3     H1       HT       0.417000       1.00800           0
     23734 TIP3     2120     TIP3     H2       HT       0.417000       1.00800           0
     23735 TIP3     2121     TIP3     OH2      OT      -0.834000       15.9994           0
     23736 TIP3     2121     TIP3     H1       HT       0.417000       1.00800           0
     23737 TIP3     2121     TIP3     H2       HT       0.417000       1.00800           0
     23738 TIP3     2122     TIP3     OH2      OT      -0.834000       15.9994           0
     23739 TIP3     2122     TIP3     H1       HT       0.417000       1.00800           0
     23740 TIP3     2122     TIP3     H2       HT       0.417000       1.00800           0
     23741 TIP3     2123     TIP3     OH2      OT      -0.834000       15.9994           0
     23742 TIP3     2123     TIP3     H1       HT       0.417000       1.00800           0
     23743 TIP3     2123     TIP3     H2       HT       0.417000       1.00800           0
     23744 TIP3     2124     TIP3     OH2      OT      -0.834000       15.9994           0
     23745 TIP3     2124     TIP3     H1       HT       0.417000       1.00800           0
     23746 TIP3     2124     TIP3     H2       HT       0.417000       1.00800           0
     23747 TIP3     2125     TIP3     OH2      OT      -0.834000       15.9994           0
     23748 TIP3     2125     TIP3     H1       HT       0.417000       1.00800           0
     23749 TIP3     2125     TIP3     H2       HT       0.417000       1.00800           0
     23750 TIP3     2126     TIP3     OH2      OT      -0.834000       15.9994           0
     23751 TIP3     2126     TIP3     H1       HT       0.417000       1.00800           0
     23752 TIP3     2126     TIP3     H2       HT       0.417000       1.00800           0
     23753 TIP3     2127     TIP3     OH2      OT      -0.834000       15.9994           0
     23754 TIP3     2127     TIP3     H1       HT       0.417000       1.00800           0
     23755 TIP3     2127     TIP3     H2       HT       0.417000       1.00800           0
     23756 TIP3     2128     TIP3     OH2      OT      -0.834000       15.9994           0
     23757 TIP3     2128     TIP3     H1       HT       0.417000       1.00800           0
     23758 TIP3     2128     TIP3     H2       HT       0.417000       1.00800           0
     23759 TIP3     2129     TIP3     OH2      OT      -0.834000       15.9994           0
     23760 TIP3     2129     TIP3     H1       HT       0.417000       1.00800           0
     23761 TIP3     2129     TIP3     H2       HT       0.417000       1.00800           0
     23762 TIP3     2130     TIP3     OH2      OT      -0.834000       15.9994           0
     23763 TIP3     2130     TIP3     H1       HT       0.417000       1.00800           0
     23764 TIP3     2130     TIP3     H2       HT       0.417000       1.00800           0
     23765 TIP3     2131     TIP3     OH2      OT      -0.834000       15.9994           0
     23766 TIP3     2131     TIP3     H1       HT       0.417000       1.00800           0
     23767 TIP3     2131     TIP3     H2       HT       0.417000       1.00800           0
     23768 TIP3     2132     TIP3     OH2      OT      -0.834000       15.9994           0
     23769 TIP3     2132     TIP3     H1       HT       0.417000       1.00800           0
     23770 TIP3     2132     TIP3     H2       HT       0.417000       1.00800           0
     23771 TIP3     2133     TIP3     OH2      OT      -0.834000       15.9994           0
     23772 TIP3     2133     TIP3     H1       HT       0.417000       1.00800           0
     23773 TIP3     2133     TIP3     H2       HT       0.417000       1.00800           0
     23774 TIP3     2134     TIP3     OH2      OT      -0.834000       15.9994           0
     23775 TIP3     2134     TIP3     H1       HT       0.417000       1.00800           0
     23776 TIP3     2134     TIP3     H2       HT       0.417000       1.00800           0
     23777 TIP3     2135     TIP3     OH2      OT      -0.834000       15.9994           0
     23778 TIP3     2135     TIP3     H1       HT       0.417000       1.00800           0
     23779 TIP3     2135     TIP3     H2       HT       0.417000       1.00800           0
     23780 TIP3     2136     TIP3     OH2      OT      -0.834000       15.9994           0
     23781 TIP3     2136     TIP3     H1       HT       0.417000       1.00800           0
     23782 TIP3     2136     TIP3     H2       HT       0.417000       1.00800           0
     23783 TIP3     2137     TIP3     OH2      OT      -0.834000       15.9994           0
     23784 TIP3     2137     TIP3     H1       HT       0.417000       1.00800           0
     23785 TIP3     2137     TIP3     H2       HT       0.417000       1.00800           0
     23786 TIP3     2138     TIP3     OH2      OT      -0.834000       15.9994           0
     23787 TIP3     2138     TIP3     H1       HT       0.417000       1.00800           0
     23788 TIP3     2138     TIP3     H2       HT       0.417000       1.00800           0
     23789 TIP3     2139     TIP3     OH2      OT      -0.834000       15.9994           0
     23790 TIP3     2139     TIP3     H1       HT       0.417000       1.00800           0
     23791 TIP3     2139     TIP3     H2       HT       0.417000       1.00800           0
     23792 TIP3     2140     TIP3     OH2      OT      -0.834000       15.9994           0
     23793 TIP3     2140     TIP3     H1       HT       0.417000       1.00800           0
     23794 TIP3     2140     TIP3     H2       HT       0.417000       1.00800           0
     23795 TIP3     2141     TIP3     OH2      OT      -0.834000       15.9994           0
     23796 TIP3     2141     TIP3     H1       HT       0.417000       1.00800           0
     23797 TIP3     2141     TIP3     H2       HT       0.417000       1.00800           0
     23798 TIP3     2142     TIP3     OH2      OT      -0.834000       15.9994           0
     23799 TIP3     2142     TIP3     H1       HT       0.417000       1.00800           0
     23800 TIP3     2142     TIP3     H2       HT       0.417000       1.00800           0
     23801 TIP3     2143     TIP3     OH2      OT      -0.834000       15.9994           0
     23802 TIP3     2143     TIP3     H1       HT       0.417000       1.00800           0
     23803 TIP3     2143     TIP3     H2       HT       0.417000       1.00800           0
     23804 TIP3     2144     TIP3     OH2      OT      -0.834000       15.9994           0
     23805 TIP3     2144     TIP3     H1       HT       0.417000       1.00800           0
     23806 TIP3     2144     TIP3     H2       HT       0.417000       1.00800           0
     23807 TIP3     2145     TIP3     OH2      OT      -0.834000       15.9994           0
     23808 TIP3     2145     TIP3     H1       HT       0.417000       1.00800           0
     23809 TIP3     2145     TIP3     H2       HT       0.417000       1.00800           0
     23810 TIP3     2146     TIP3     OH2      OT      -0.834000       15.9994           0
     23811 TIP3     2146     TIP3     H1       HT       0.417000       1.00800           0
     23812 TIP3     2146     TIP3     H2       HT       0.417000       1.00800           0
     23813 TIP3     2147     TIP3     OH2      OT      -0.834000       15.9994           0
     23814 TIP3     2147     TIP3     H1       HT       0.417000       1.00800           0
     23815 TIP3     2147     TIP3     H2       HT       0.417000       1.00800           0
     23816 TIP3     2148     TIP3     OH2      OT      -0.834000       15.9994           0
     23817 TIP3     2148     TIP3     H1       HT       0.417000       1.00800           0
     23818 TIP3     2148     TIP3     H2       HT       0.417000       1.00800           0
     23819 TIP3     2149     TIP3     OH2      OT      -0.834000       15.9994           0
     23820 TIP3     2149     TIP3     H1       HT       0.417000       1.00800           0
     23821 TIP3     2149     TIP3     H2       HT       0.417000       1.00800           0
     23822 TIP3     2150     TIP3     OH2      OT      -0.834000       15.9994           0
     23823 TIP3     2150     TIP3     H1       HT       0.417000       1.00800           0
     23824 TIP3     2150     TIP3     H2       HT       0.417000       1.00800           0
     23825 TIP3     2151     TIP3     OH2      OT      -0.834000       15.9994           0
     23826 TIP3     2151     TIP3     H1       HT       0.417000       1.00800           0
     23827 TIP3     2151     TIP3     H2       HT       0.417000       1.00800           0
     23828 TIP3     2152     TIP3     OH2      OT      -0.834000       15.9994           0
     23829 TIP3     2152     TIP3     H1       HT       0.417000       1.00800           0
     23830 TIP3     2152     TIP3     H2       HT       0.417000       1.00800           0
     23831 TIP3     2153     TIP3     OH2      OT      -0.834000       15.9994           0
     23832 TIP3     2153     TIP3     H1       HT       0.417000       1.00800           0
     23833 TIP3     2153     TIP3     H2       HT       0.417000       1.00800           0
     23834 TIP3     2154     TIP3     OH2      OT      -0.834000       15.9994           0
     23835 TIP3     2154     TIP3     H1       HT       0.417000       1.00800           0
     23836 TIP3     2154     TIP3     H2       HT       0.417000       1.00800           0
     23837 TIP3     2155     TIP3     OH2      OT      -0.834000       15.9994           0
     23838 TIP3     2155     TIP3     H1       HT       0.417000       1.00800           0
     23839 TIP3     2155     TIP3     H2       HT       0.417000       1.00800           0
     23840 TIP3     2156     TIP3     OH2      OT      -0.834000       15.9994           0
     23841 TIP3     2156     TIP3     H1       HT       0.417000       1.00800           0
     23842 TIP3     2156     TIP3     H2       HT       0.417000       1.00800           0
     23843 TIP3     2157     TIP3     OH2      OT      -0.834000       15.9994           0
     23844 TIP3     2157     TIP3     H1       HT       0.417000       1.00800           0
     23845 TIP3     2157     TIP3     H2       HT       0.417000       1.00800           0
     23846 TIP3     2158     TIP3     OH2      OT      -0.834000       15.9994           0
     23847 TIP3     2158     TIP3     H1       HT       0.417000       1.00800           0
     23848 TIP3     2158     TIP3     H2       HT       0.417000       1.00800           0
     23849 TIP3     2159     TIP3     OH2      OT      -0.834000       15.9994           0
     23850 TIP3     2159     TIP3     H1       HT       0.417000       1.00800           0
     23851 TIP3     2159     TIP3     H2       HT       0.417000       1.00800           0
     23852 TIP3     2160     TIP3     OH2      OT      -0.834000       15.9994           0
     23853 TIP3     2160     TIP3     H1       HT       0.417000       1.00800           0
     23854 TIP3     2160     TIP3     H2       HT       0.417000       1.00800           0
     23855 TIP3     2161     TIP3     OH2      OT      -0.834000       15.9994           0
     23856 TIP3     2161     TIP3     H1       HT       0.417000       1.00800           0
     23857 TIP3     2161     TIP3     H2       HT       0.417000       1.00800           0
     23858 TIP3     2162     TIP3     OH2      OT      -0.834000       15.9994           0
     23859 TIP3     2162     TIP3     H1       HT       0.417000       1.00800           0
     23860 TIP3     2162     TIP3     H2       HT       0.417000       1.00800           0
     23861 TIP3     2163     TIP3     OH2      OT      -0.834000       15.9994           0
     23862 TIP3     2163     TIP3     H1       HT       0.417000       1.00800           0
     23863 TIP3     2163     TIP3     H2       HT       0.417000       1.00800           0
     23864 TIP3     2164     TIP3     OH2      OT      -0.834000       15.9994           0
     23865 TIP3     2164     TIP3     H1       HT       0.417000       1.00800           0
     23866 TIP3     2164     TIP3     H2       HT       0.417000       1.00800           0
     23867 TIP3     2165     TIP3     OH2      OT      -0.834000       15.9994           0
     23868 TIP3     2165     TIP3     H1       HT       0.417000       1.00800           0
     23869 TIP3     2165     TIP3     H2       HT       0.417000       1.00800           0
     23870 TIP3     2166     TIP3     OH2      OT      -0.834000       15.9994           0
     23871 TIP3     2166     TIP3     H1       HT       0.417000       1.00800           0
     23872 TIP3     2166     TIP3     H2       HT       0.417000       1.00800           0
     23873 TIP3     2167     TIP3     OH2      OT      -0.834000       15.9994           0
     23874 TIP3     2167     TIP3     H1       HT       0.417000       1.00800           0
     23875 TIP3     2167     TIP3     H2       HT       0.417000       1.00800           0
     23876 TIP3     2168     TIP3     OH2      OT      -0.834000       15.9994           0
     23877 TIP3     2168     TIP3     H1       HT       0.417000       1.00800           0
     23878 TIP3     2168     TIP3     H2       HT       0.417000       1.00800           0
     23879 TIP3     2169     TIP3     OH2      OT      -0.834000       15.9994           0
     23880 TIP3     2169     TIP3     H1       HT       0.417000       1.00800           0
     23881 TIP3     2169     TIP3     H2       HT       0.417000       1.00800           0
     23882 TIP3     2170     TIP3     OH2      OT      -0.834000       15.9994           0
     23883 TIP3     2170     TIP3     H1       HT       0.417000       1.00800           0
     23884 TIP3     2170     TIP3     H2       HT       0.417000       1.00800           0
     23885 TIP3     2171     TIP3     OH2      OT      -0.834000       15.9994           0
     23886 TIP3     2171     TIP3     H1       HT       0.417000       1.00800           0
     23887 TIP3     2171     TIP3     H2       HT       0.417000       1.00800           0
     23888 TIP3     2172     TIP3     OH2      OT      -0.834000       15.9994           0
     23889 TIP3     2172     TIP3     H1       HT       0.417000       1.00800           0
     23890 TIP3     2172     TIP3     H2       HT       0.417000       1.00800           0
     23891 TIP3     2173     TIP3     OH2      OT      -0.834000       15.9994           0
     23892 TIP3     2173     TIP3     H1       HT       0.417000       1.00800           0
     23893 TIP3     2173     TIP3     H2       HT       0.417000       1.00800           0
     23894 TIP3     2174     TIP3     OH2      OT      -0.834000       15.9994           0
     23895 TIP3     2174     TIP3     H1       HT       0.417000       1.00800           0
     23896 TIP3     2174     TIP3     H2       HT       0.417000       1.00800           0
     23897 TIP3     2175     TIP3     OH2      OT      -0.834000       15.9994           0
     23898 TIP3     2175     TIP3     H1       HT       0.417000       1.00800           0
     23899 TIP3     2175     TIP3     H2       HT       0.417000       1.00800           0
     23900 TIP3     2176     TIP3     OH2      OT      -0.834000       15.9994           0
     23901 TIP3     2176     TIP3     H1       HT       0.417000       1.00800           0
     23902 TIP3     2176     TIP3     H2       HT       0.417000       1.00800           0
     23903 TIP3     2177     TIP3     OH2      OT      -0.834000       15.9994           0
     23904 TIP3     2177     TIP3     H1       HT       0.417000       1.00800           0
     23905 TIP3     2177     TIP3     H2       HT       0.417000       1.00800           0
     23906 TIP3     2178     TIP3     OH2      OT      -0.834000       15.9994           0
     23907 TIP3     2178     TIP3     H1       HT       0.417000       1.00800           0
     23908 TIP3     2178     TIP3     H2       HT       0.417000       1.00800           0
     23909 TIP3     2179     TIP3     OH2      OT      -0.834000       15.9994           0
     23910 TIP3     2179     TIP3     H1       HT       0.417000       1.00800           0
     23911 TIP3     2179     TIP3     H2       HT       0.417000       1.00800           0
     23912 TIP3     2180     TIP3     OH2      OT      -0.834000       15.9994           0
     23913 TIP3     2180     TIP3     H1       HT       0.417000       1.00800           0
     23914 TIP3     2180     TIP3     H2       HT       0.417000       1.00800           0
     23915 TIP3     2181     TIP3     OH2      OT      -0.834000       15.9994           0
     23916 TIP3     2181     TIP3     H1       HT       0.417000       1.00800           0
     23917 TIP3     2181     TIP3     H2       HT       0.417000       1.00800           0
     23918 TIP3     2182     TIP3     OH2      OT      -0.834000       15.9994           0
     23919 TIP3     2182     TIP3     H1       HT       0.417000       1.00800           0
     23920 TIP3     2182     TIP3     H2       HT       0.417000       1.00800           0
     23921 TIP3     2183     TIP3     OH2      OT      -0.834000       15.9994           0
     23922 TIP3     2183     TIP3     H1       HT       0.417000       1.00800           0
     23923 TIP3     2183     TIP3     H2       HT       0.417000       1.00800           0
     23924 TIP3     2184     TIP3     OH2      OT      -0.834000       15.9994           0
     23925 TIP3     2184     TIP3     H1       HT       0.417000       1.00800           0
     23926 TIP3     2184     TIP3     H2       HT       0.417000       1.00800           0
     23927 TIP3     2185     TIP3     OH2      OT      -0.834000       15.9994           0
     23928 TIP3     2185     TIP3     H1       HT       0.417000       1.00800           0
     23929 TIP3     2185     TIP3     H2       HT       0.417000       1.00800           0
     23930 TIP3     2186     TIP3     OH2      OT      -0.834000       15.9994           0
     23931 TIP3     2186     TIP3     H1       HT       0.417000       1.00800           0
     23932 TIP3     2186     TIP3     H2       HT       0.417000       1.00800           0
     23933 TIP3     2187     TIP3     OH2      OT      -0.834000       15.9994           0
     23934 TIP3     2187     TIP3     H1       HT       0.417000       1.00800           0
     23935 TIP3     2187     TIP3     H2       HT       0.417000       1.00800           0
     23936 TIP3     2188     TIP3     OH2      OT      -0.834000       15.9994           0
     23937 TIP3     2188     TIP3     H1       HT       0.417000       1.00800           0
     23938 TIP3     2188     TIP3     H2       HT       0.417000       1.00800           0
     23939 TIP3     2189     TIP3     OH2      OT      -0.834000       15.9994           0
     23940 TIP3     2189     TIP3     H1       HT       0.417000       1.00800           0
     23941 TIP3     2189     TIP3     H2       HT       0.417000       1.00800           0
     23942 TIP3     2190     TIP3     OH2      OT      -0.834000       15.9994           0
     23943 TIP3     2190     TIP3     H1       HT       0.417000       1.00800           0
     23944 TIP3     2190     TIP3     H2       HT       0.417000       1.00800           0
     23945 TIP3     2191     TIP3     OH2      OT      -0.834000       15.9994           0
     23946 TIP3     2191     TIP3     H1       HT       0.417000       1.00800           0
     23947 TIP3     2191     TIP3     H2       HT       0.417000       1.00800           0
     23948 TIP3     2192     TIP3     OH2      OT      -0.834000       15.9994           0
     23949 TIP3     2192     TIP3     H1       HT       0.417000       1.00800           0
     23950 TIP3     2192     TIP3     H2       HT       0.417000       1.00800           0
     23951 TIP3     2193     TIP3     OH2      OT      -0.834000       15.9994           0
     23952 TIP3     2193     TIP3     H1       HT       0.417000       1.00800           0
     23953 TIP3     2193     TIP3     H2       HT       0.417000       1.00800           0
     23954 TIP3     2194     TIP3     OH2      OT      -0.834000       15.9994           0
     23955 TIP3     2194     TIP3     H1       HT       0.417000       1.00800           0
     23956 TIP3     2194     TIP3     H2       HT       0.417000       1.00800           0
     23957 TIP3     2195     TIP3     OH2      OT      -0.834000       15.9994           0
     23958 TIP3     2195     TIP3     H1       HT       0.417000       1.00800           0
     23959 TIP3     2195     TIP3     H2       HT       0.417000       1.00800           0
     23960 TIP3     2196     TIP3     OH2      OT      -0.834000       15.9994           0
     23961 TIP3     2196     TIP3     H1       HT       0.417000       1.00800           0
     23962 TIP3     2196     TIP3     H2       HT       0.417000       1.00800           0
     23963 TIP3     2197     TIP3     OH2      OT      -0.834000       15.9994           0
     23964 TIP3     2197     TIP3     H1       HT       0.417000       1.00800           0
     23965 TIP3     2197     TIP3     H2       HT       0.417000       1.00800           0
     23966 TIP3     2198     TIP3     OH2      OT      -0.834000       15.9994           0
     23967 TIP3     2198     TIP3     H1       HT       0.417000       1.00800           0
     23968 TIP3     2198     TIP3     H2       HT       0.417000       1.00800           0
     23969 TIP3     2199     TIP3     OH2      OT      -0.834000       15.9994           0
     23970 TIP3     2199     TIP3     H1       HT       0.417000       1.00800           0
     23971 TIP3     2199     TIP3     H2       HT       0.417000       1.00800           0
     23972 TIP3     2200     TIP3     OH2      OT      -0.834000       15.9994           0
     23973 TIP3     2200     TIP3     H1       HT       0.417000       1.00800           0
     23974 TIP3     2200     TIP3     H2       HT       0.417000       1.00800           0
     23975 TIP3     2201     TIP3     OH2      OT      -0.834000       15.9994           0
     23976 TIP3     2201     TIP3     H1       HT       0.417000       1.00800           0
     23977 TIP3     2201     TIP3     H2       HT       0.417000       1.00800           0
     23978 TIP3     2202     TIP3     OH2      OT      -0.834000       15.9994           0
     23979 TIP3     2202     TIP3     H1       HT       0.417000       1.00800           0
     23980 TIP3     2202     TIP3     H2       HT       0.417000       1.00800           0
     23981 TIP3     2203     TIP3     OH2      OT      -0.834000       15.9994           0
     23982 TIP3     2203     TIP3     H1       HT       0.417000       1.00800           0
     23983 TIP3     2203     TIP3     H2       HT       0.417000       1.00800           0
     23984 TIP3     2204     TIP3     OH2      OT      -0.834000       15.9994           0
     23985 TIP3     2204     TIP3     H1       HT       0.417000       1.00800           0
     23986 TIP3     2204     TIP3     H2       HT       0.417000       1.00800           0
     23987 TIP3     2205     TIP3     OH2      OT      -0.834000       15.9994           0
     23988 TIP3     2205     TIP3     H1       HT       0.417000       1.00800           0
     23989 TIP3     2205     TIP3     H2       HT       0.417000       1.00800           0
     23990 TIP3     2206     TIP3     OH2      OT      -0.834000       15.9994           0
     23991 TIP3     2206     TIP3     H1       HT       0.417000       1.00800           0
     23992 TIP3     2206     TIP3     H2       HT       0.417000       1.00800           0
     23993 TIP3     2207     TIP3     OH2      OT      -0.834000       15.9994           0
     23994 TIP3     2207     TIP3     H1       HT       0.417000       1.00800           0
     23995 TIP3     2207     TIP3     H2       HT       0.417000       1.00800           0
     23996 TIP3     2208     TIP3     OH2      OT      -0.834000       15.9994           0
     23997 TIP3     2208     TIP3     H1       HT       0.417000       1.00800           0
     23998 TIP3     2208     TIP3     H2       HT       0.417000       1.00800           0
     23999 TIP3     2209     TIP3     OH2      OT      -0.834000       15.9994           0
     24000 TIP3     2209     TIP3     H1       HT       0.417000       1.00800           0
     24001 TIP3     2209     TIP3     H2       HT       0.417000       1.00800           0
     24002 TIP3     2210     TIP3     OH2      OT      -0.834000       15.9994           0
     24003 TIP3     2210     TIP3     H1       HT       0.417000       1.00800           0
     24004 TIP3     2210     TIP3     H2       HT       0.417000       1.00800           0
     24005 TIP3     2211     TIP3     OH2      OT      -0.834000       15.9994           0
     24006 TIP3     2211     TIP3     H1       HT       0.417000       1.00800           0
     24007 TIP3     2211     TIP3     H2       HT       0.417000       1.00800           0
     24008 TIP3     2212     TIP3     OH2      OT      -0.834000       15.9994           0
     24009 TIP3     2212     TIP3     H1       HT       0.417000       1.00800           0
     24010 TIP3     2212     TIP3     H2       HT       0.417000       1.00800           0
     24011 TIP3     2213     TIP3     OH2      OT      -0.834000       15.9994           0
     24012 TIP3     2213     TIP3     H1       HT       0.417000       1.00800           0
     24013 TIP3     2213     TIP3     H2       HT       0.417000       1.00800           0
     24014 TIP3     2214     TIP3     OH2      OT      -0.834000       15.9994           0
     24015 TIP3     2214     TIP3     H1       HT       0.417000       1.00800           0
     24016 TIP3     2214     TIP3     H2       HT       0.417000       1.00800           0
     24017 TIP3     2215     TIP3     OH2      OT      -0.834000       15.9994           0
     24018 TIP3     2215     TIP3     H1       HT       0.417000       1.00800           0
     24019 TIP3     2215     TIP3     H2       HT       0.417000       1.00800           0
     24020 TIP3     2216     TIP3     OH2      OT      -0.834000       15.9994           0
     24021 TIP3     2216     TIP3     H1       HT       0.417000       1.00800           0
     24022 TIP3     2216     TIP3     H2       HT       0.417000       1.00800           0
     24023 TIP3     2217     TIP3     OH2      OT      -0.834000       15.9994           0
     24024 TIP3     2217     TIP3     H1       HT       0.417000       1.00800           0
     24025 TIP3     2217     TIP3     H2       HT       0.417000       1.00800           0
     24026 TIP3     2218     TIP3     OH2      OT      -0.834000       15.9994           0
     24027 TIP3     2218     TIP3     H1       HT       0.417000       1.00800           0
     24028 TIP3     2218     TIP3     H2       HT       0.417000       1.00800           0
     24029 TIP3     2219     TIP3     OH2      OT      -0.834000       15.9994           0
     24030 TIP3     2219     TIP3     H1       HT       0.417000       1.00800           0
     24031 TIP3     2219     TIP3     H2       HT       0.417000       1.00800           0
     24032 TIP3     2220     TIP3     OH2      OT      -0.834000       15.9994           0
     24033 TIP3     2220     TIP3     H1       HT       0.417000       1.00800           0
     24034 TIP3     2220     TIP3     H2       HT       0.417000       1.00800           0
     24035 TIP3     2221     TIP3     OH2      OT      -0.834000       15.9994           0
     24036 TIP3     2221     TIP3     H1       HT       0.417000       1.00800           0
     24037 TIP3     2221     TIP3     H2       HT       0.417000       1.00800           0
     24038 TIP3     2222     TIP3     OH2      OT      -0.834000       15.9994           0
     24039 TIP3     2222     TIP3     H1       HT       0.417000       1.00800           0
     24040 TIP3     2222     TIP3     H2       HT       0.417000       1.00800           0
     24041 TIP3     2223     TIP3     OH2      OT      -0.834000       15.9994           0
     24042 TIP3     2223     TIP3     H1       HT       0.417000       1.00800           0
     24043 TIP3     2223     TIP3     H2       HT       0.417000       1.00800           0
     24044 TIP3     2224     TIP3     OH2      OT      -0.834000       15.9994           0
     24045 TIP3     2224     TIP3     H1       HT       0.417000       1.00800           0
     24046 TIP3     2224     TIP3     H2       HT       0.417000       1.00800           0
     24047 TIP3     2225     TIP3     OH2      OT      -0.834000       15.9994           0
     24048 TIP3     2225     TIP3     H1       HT       0.417000       1.00800           0
     24049 TIP3     2225     TIP3     H2       HT       0.417000       1.00800           0
     24050 TIP3     2226     TIP3     OH2      OT      -0.834000       15.9994           0
     24051 TIP3     2226     TIP3     H1       HT       0.417000       1.00800           0
     24052 TIP3     2226     TIP3     H2       HT       0.417000       1.00800           0
     24053 TIP3     2227     TIP3     OH2      OT      -0.834000       15.9994           0
     24054 TIP3     2227     TIP3     H1       HT       0.417000       1.00800           0
     24055 TIP3     2227     TIP3     H2       HT       0.417000       1.00800           0
     24056 TIP3     2228     TIP3     OH2      OT      -0.834000       15.9994           0
     24057 TIP3     2228     TIP3     H1       HT       0.417000       1.00800           0
     24058 TIP3     2228     TIP3     H2       HT       0.417000       1.00800           0
     24059 TIP3     2229     TIP3     OH2      OT      -0.834000       15.9994           0
     24060 TIP3     2229     TIP3     H1       HT       0.417000       1.00800           0
     24061 TIP3     2229     TIP3     H2       HT       0.417000       1.00800           0
     24062 TIP3     2230     TIP3     OH2      OT      -0.834000       15.9994           0
     24063 TIP3     2230     TIP3     H1       HT       0.417000       1.00800           0
     24064 TIP3     2230     TIP3     H2       HT       0.417000       1.00800           0
     24065 TIP3     2231     TIP3     OH2      OT      -0.834000       15.9994           0
     24066 TIP3     2231     TIP3     H1       HT       0.417000       1.00800           0
     24067 TIP3     2231     TIP3     H2       HT       0.417000       1.00800           0
     24068 TIP3     2232     TIP3     OH2      OT      -0.834000       15.9994           0
     24069 TIP3     2232     TIP3     H1       HT       0.417000       1.00800           0
     24070 TIP3     2232     TIP3     H2       HT       0.417000       1.00800           0
     24071 TIP3     2233     TIP3     OH2      OT      -0.834000       15.9994           0
     24072 TIP3     2233     TIP3     H1       HT       0.417000       1.00800           0
     24073 TIP3     2233     TIP3     H2       HT       0.417000       1.00800           0
     24074 TIP3     2234     TIP3     OH2      OT      -0.834000       15.9994           0
     24075 TIP3     2234     TIP3     H1       HT       0.417000       1.00800           0
     24076 TIP3     2234     TIP3     H2       HT       0.417000       1.00800           0
     24077 TIP3     2235     TIP3     OH2      OT      -0.834000       15.9994           0
     24078 TIP3     2235     TIP3     H1       HT       0.417000       1.00800           0
     24079 TIP3     2235     TIP3     H2       HT       0.417000       1.00800           0
     24080 TIP3     2236     TIP3     OH2      OT      -0.834000       15.9994           0
     24081 TIP3     2236     TIP3     H1       HT       0.417000       1.00800           0
     24082 TIP3     2236     TIP3     H2       HT       0.417000       1.00800           0
     24083 TIP3     2237     TIP3     OH2      OT      -0.834000       15.9994           0
     24084 TIP3     2237     TIP3     H1       HT       0.417000       1.00800           0
     24085 TIP3     2237     TIP3     H2       HT       0.417000       1.00800           0
     24086 TIP3     2238     TIP3     OH2      OT      -0.834000       15.9994           0
     24087 TIP3     2238     TIP3     H1       HT       0.417000       1.00800           0
     24088 TIP3     2238     TIP3     H2       HT       0.417000       1.00800           0
     24089 TIP3     2239     TIP3     OH2      OT      -0.834000       15.9994           0
     24090 TIP3     2239     TIP3     H1       HT       0.417000       1.00800           0
     24091 TIP3     2239     TIP3     H2       HT       0.417000       1.00800           0
     24092 TIP3     2240     TIP3     OH2      OT      -0.834000       15.9994           0
     24093 TIP3     2240     TIP3     H1       HT       0.417000       1.00800           0
     24094 TIP3     2240     TIP3     H2       HT       0.417000       1.00800           0
     24095 TIP3     2241     TIP3     OH2      OT      -0.834000       15.9994           0
     24096 TIP3     2241     TIP3     H1       HT       0.417000       1.00800           0
     24097 TIP3     2241     TIP3     H2       HT       0.417000       1.00800           0
     24098 TIP3     2242     TIP3     OH2      OT      -0.834000       15.9994           0
     24099 TIP3     2242     TIP3     H1       HT       0.417000       1.00800           0
     24100 TIP3     2242     TIP3     H2       HT       0.417000       1.00800           0
     24101 TIP3     2243     TIP3     OH2      OT      -0.834000       15.9994           0
     24102 TIP3     2243     TIP3     H1       HT       0.417000       1.00800           0
     24103 TIP3     2243     TIP3     H2       HT       0.417000       1.00800           0
     24104 TIP3     2244     TIP3     OH2      OT      -0.834000       15.9994           0
     24105 TIP3     2244     TIP3     H1       HT       0.417000       1.00800           0
     24106 TIP3     2244     TIP3     H2       HT       0.417000       1.00800           0
     24107 TIP3     2245     TIP3     OH2      OT      -0.834000       15.9994           0
     24108 TIP3     2245     TIP3     H1       HT       0.417000       1.00800           0
     24109 TIP3     2245     TIP3     H2       HT       0.417000       1.00800           0
     24110 TIP3     2246     TIP3     OH2      OT      -0.834000       15.9994           0
     24111 TIP3     2246     TIP3     H1       HT       0.417000       1.00800           0
     24112 TIP3     2246     TIP3     H2       HT       0.417000       1.00800           0
     24113 TIP3     2247     TIP3     OH2      OT      -0.834000       15.9994           0
     24114 TIP3     2247     TIP3     H1       HT       0.417000       1.00800           0
     24115 TIP3     2247     TIP3     H2       HT       0.417000       1.00800           0
     24116 TIP3     2248     TIP3     OH2      OT      -0.834000       15.9994           0
     24117 TIP3     2248     TIP3     H1       HT       0.417000       1.00800           0
     24118 TIP3     2248     TIP3     H2       HT       0.417000       1.00800           0
     24119 TIP3     2249     TIP3     OH2      OT      -0.834000       15.9994           0
     24120 TIP3     2249     TIP3     H1       HT       0.417000       1.00800           0
     24121 TIP3     2249     TIP3     H2       HT       0.417000       1.00800           0
     24122 TIP3     2250     TIP3     OH2      OT      -0.834000       15.9994           0
     24123 TIP3     2250     TIP3     H1       HT       0.417000       1.00800           0
     24124 TIP3     2250     TIP3     H2       HT       0.417000       1.00800           0
     24125 TIP3     2251     TIP3     OH2      OT      -0.834000       15.9994           0
     24126 TIP3     2251     TIP3     H1       HT       0.417000       1.00800           0
     24127 TIP3     2251     TIP3     H2       HT       0.417000       1.00800           0
     24128 TIP3     2252     TIP3     OH2      OT      -0.834000       15.9994           0
     24129 TIP3     2252     TIP3     H1       HT       0.417000       1.00800           0
     24130 TIP3     2252     TIP3     H2       HT       0.417000       1.00800           0
     24131 TIP3     2253     TIP3     OH2      OT      -0.834000       15.9994           0
     24132 TIP3     2253     TIP3     H1       HT       0.417000       1.00800           0
     24133 TIP3     2253     TIP3     H2       HT       0.417000       1.00800           0
     24134 TIP3     2254     TIP3     OH2      OT      -0.834000       15.9994           0
     24135 TIP3     2254     TIP3     H1       HT       0.417000       1.00800           0
     24136 TIP3     2254     TIP3     H2       HT       0.417000       1.00800           0
     24137 TIP3     2255     TIP3     OH2      OT      -0.834000       15.9994           0
     24138 TIP3     2255     TIP3     H1       HT       0.417000       1.00800           0
     24139 TIP3     2255     TIP3     H2       HT       0.417000       1.00800           0
     24140 TIP3     2256     TIP3     OH2      OT      -0.834000       15.9994           0
     24141 TIP3     2256     TIP3     H1       HT       0.417000       1.00800           0
     24142 TIP3     2256     TIP3     H2       HT       0.417000       1.00800           0
     24143 TIP3     2257     TIP3     OH2      OT      -0.834000       15.9994           0
     24144 TIP3     2257     TIP3     H1       HT       0.417000       1.00800           0
     24145 TIP3     2257     TIP3     H2       HT       0.417000       1.00800           0
     24146 TIP3     2258     TIP3     OH2      OT      -0.834000       15.9994           0
     24147 TIP3     2258     TIP3     H1       HT       0.417000       1.00800           0
     24148 TIP3     2258     TIP3     H2       HT       0.417000       1.00800           0
     24149 TIP3     2259     TIP3     OH2      OT      -0.834000       15.9994           0
     24150 TIP3     2259     TIP3     H1       HT       0.417000       1.00800           0
     24151 TIP3     2259     TIP3     H2       HT       0.417000       1.00800           0
     24152 TIP3     2260     TIP3     OH2      OT      -0.834000       15.9994           0
     24153 TIP3     2260     TIP3     H1       HT       0.417000       1.00800           0
     24154 TIP3     2260     TIP3     H2       HT       0.417000       1.00800           0
     24155 TIP3     2261     TIP3     OH2      OT      -0.834000       15.9994           0
     24156 TIP3     2261     TIP3     H1       HT       0.417000       1.00800           0
     24157 TIP3     2261     TIP3     H2       HT       0.417000       1.00800           0
     24158 TIP3     2262     TIP3     OH2      OT      -0.834000       15.9994           0
     24159 TIP3     2262     TIP3     H1       HT       0.417000       1.00800           0
     24160 TIP3     2262     TIP3     H2       HT       0.417000       1.00800           0
     24161 TIP3     2263     TIP3     OH2      OT      -0.834000       15.9994           0
     24162 TIP3     2263     TIP3     H1       HT       0.417000       1.00800           0
     24163 TIP3     2263     TIP3     H2       HT       0.417000       1.00800           0
     24164 TIP3     2264     TIP3     OH2      OT      -0.834000       15.9994           0
     24165 TIP3     2264     TIP3     H1       HT       0.417000       1.00800           0
     24166 TIP3     2264     TIP3     H2       HT       0.417000       1.00800           0
     24167 TIP3     2265     TIP3     OH2      OT      -0.834000       15.9994           0
     24168 TIP3     2265     TIP3     H1       HT       0.417000       1.00800           0
     24169 TIP3     2265     TIP3     H2       HT       0.417000       1.00800           0
     24170 TIP3     2266     TIP3     OH2      OT      -0.834000       15.9994           0
     24171 TIP3     2266     TIP3     H1       HT       0.417000       1.00800           0
     24172 TIP3     2266     TIP3     H2       HT       0.417000       1.00800           0
     24173 TIP3     2267     TIP3     OH2      OT      -0.834000       15.9994           0
     24174 TIP3     2267     TIP3     H1       HT       0.417000       1.00800           0
     24175 TIP3     2267     TIP3     H2       HT       0.417000       1.00800           0
     24176 TIP3     2268     TIP3     OH2      OT      -0.834000       15.9994           0
     24177 TIP3     2268     TIP3     H1       HT       0.417000       1.00800           0
     24178 TIP3     2268     TIP3     H2       HT       0.417000       1.00800           0
     24179 TIP3     2269     TIP3     OH2      OT      -0.834000       15.9994           0
     24180 TIP3     2269     TIP3     H1       HT       0.417000       1.00800           0
     24181 TIP3     2269     TIP3     H2       HT       0.417000       1.00800           0
     24182 TIP3     2270     TIP3     OH2      OT      -0.834000       15.9994           0
     24183 TIP3     2270     TIP3     H1       HT       0.417000       1.00800           0
     24184 TIP3     2270     TIP3     H2       HT       0.417000       1.00800           0
     24185 TIP3     2271     TIP3     OH2      OT      -0.834000       15.9994           0
     24186 TIP3     2271     TIP3     H1       HT       0.417000       1.00800           0
     24187 TIP3     2271     TIP3     H2       HT       0.417000       1.00800           0
     24188 TIP3     2272     TIP3     OH2      OT      -0.834000       15.9994           0
     24189 TIP3     2272     TIP3     H1       HT       0.417000       1.00800           0
     24190 TIP3     2272     TIP3     H2       HT       0.417000       1.00800           0
     24191 TIP3     2273     TIP3     OH2      OT      -0.834000       15.9994           0
     24192 TIP3     2273     TIP3     H1       HT       0.417000       1.00800           0
     24193 TIP3     2273     TIP3     H2       HT       0.417000       1.00800           0
     24194 TIP3     2274     TIP3     OH2      OT      -0.834000       15.9994           0
     24195 TIP3     2274     TIP3     H1       HT       0.417000       1.00800           0
     24196 TIP3     2274     TIP3     H2       HT       0.417000       1.00800           0
     24197 TIP3     2275     TIP3     OH2      OT      -0.834000       15.9994           0
     24198 TIP3     2275     TIP3     H1       HT       0.417000       1.00800           0
     24199 TIP3     2275     TIP3     H2       HT       0.417000       1.00800           0
     24200 TIP3     2276     TIP3     OH2      OT      -0.834000       15.9994           0
     24201 TIP3     2276     TIP3     H1       HT       0.417000       1.00800           0
     24202 TIP3     2276     TIP3     H2       HT       0.417000       1.00800           0
     24203 TIP3     2277     TIP3     OH2      OT      -0.834000       15.9994           0
     24204 TIP3     2277     TIP3     H1       HT       0.417000       1.00800           0
     24205 TIP3     2277     TIP3     H2       HT       0.417000       1.00800           0
     24206 TIP3     2278     TIP3     OH2      OT      -0.834000       15.9994           0
     24207 TIP3     2278     TIP3     H1       HT       0.417000       1.00800           0
     24208 TIP3     2278     TIP3     H2       HT       0.417000       1.00800           0
     24209 TIP3     2279     TIP3     OH2      OT      -0.834000       15.9994           0
     24210 TIP3     2279     TIP3     H1       HT       0.417000       1.00800           0
     24211 TIP3     2279     TIP3     H2       HT       0.417000       1.00800           0
     24212 TIP3     2280     TIP3     OH2      OT      -0.834000       15.9994           0
     24213 TIP3     2280     TIP3     H1       HT       0.417000       1.00800           0
     24214 TIP3     2280     TIP3     H2       HT       0.417000       1.00800           0
     24215 TIP3     2281     TIP3     OH2      OT      -0.834000       15.9994           0
     24216 TIP3     2281     TIP3     H1       HT       0.417000       1.00800           0
     24217 TIP3     2281     TIP3     H2       HT       0.417000       1.00800           0
     24218 TIP3     2282     TIP3     OH2      OT      -0.834000       15.9994           0
     24219 TIP3     2282     TIP3     H1       HT       0.417000       1.00800           0
     24220 TIP3     2282     TIP3     H2       HT       0.417000       1.00800           0
     24221 TIP3     2283     TIP3     OH2      OT      -0.834000       15.9994           0
     24222 TIP3     2283     TIP3     H1       HT       0.417000       1.00800           0
     24223 TIP3     2283     TIP3     H2       HT       0.417000       1.00800           0
     24224 TIP3     2284     TIP3     OH2      OT      -0.834000       15.9994           0
     24225 TIP3     2284     TIP3     H1       HT       0.417000       1.00800           0
     24226 TIP3     2284     TIP3     H2       HT       0.417000       1.00800           0
     24227 TIP3     2285     TIP3     OH2      OT      -0.834000       15.9994           0
     24228 TIP3     2285     TIP3     H1       HT       0.417000       1.00800           0
     24229 TIP3     2285     TIP3     H2       HT       0.417000       1.00800           0
     24230 TIP3     2286     TIP3     OH2      OT      -0.834000       15.9994           0
     24231 TIP3     2286     TIP3     H1       HT       0.417000       1.00800           0
     24232 TIP3     2286     TIP3     H2       HT       0.417000       1.00800           0
     24233 TIP3     2287     TIP3     OH2      OT      -0.834000       15.9994           0
     24234 TIP3     2287     TIP3     H1       HT       0.417000       1.00800           0
     24235 TIP3     2287     TIP3     H2       HT       0.417000       1.00800           0
     24236 TIP3     2288     TIP3     OH2      OT      -0.834000       15.9994           0
     24237 TIP3     2288     TIP3     H1       HT       0.417000       1.00800           0
     24238 TIP3     2288     TIP3     H2       HT       0.417000       1.00800           0
     24239 TIP3     2289     TIP3     OH2      OT      -0.834000       15.9994           0
     24240 TIP3     2289     TIP3     H1       HT       0.417000       1.00800           0
     24241 TIP3     2289     TIP3     H2       HT       0.417000       1.00800           0
     24242 TIP3     2290     TIP3     OH2      OT      -0.834000       15.9994           0
     24243 TIP3     2290     TIP3     H1       HT       0.417000       1.00800           0
     24244 TIP3     2290     TIP3     H2       HT       0.417000       1.00800           0
     24245 TIP3     2291     TIP3     OH2      OT      -0.834000       15.9994           0
     24246 TIP3     2291     TIP3     H1       HT       0.417000       1.00800           0
     24247 TIP3     2291     TIP3     H2       HT       0.417000       1.00800           0
     24248 TIP3     2292     TIP3     OH2      OT      -0.834000       15.9994           0
     24249 TIP3     2292     TIP3     H1       HT       0.417000       1.00800           0
     24250 TIP3     2292     TIP3     H2       HT       0.417000       1.00800           0
     24251 TIP3     2293     TIP3     OH2      OT      -0.834000       15.9994           0
     24252 TIP3     2293     TIP3     H1       HT       0.417000       1.00800           0
     24253 TIP3     2293     TIP3     H2       HT       0.417000       1.00800           0
     24254 TIP3     2294     TIP3     OH2      OT      -0.834000       15.9994           0
     24255 TIP3     2294     TIP3     H1       HT       0.417000       1.00800           0
     24256 TIP3     2294     TIP3     H2       HT       0.417000       1.00800           0
     24257 TIP3     2295     TIP3     OH2      OT      -0.834000       15.9994           0
     24258 TIP3     2295     TIP3     H1       HT       0.417000       1.00800           0
     24259 TIP3     2295     TIP3     H2       HT       0.417000       1.00800           0
     24260 TIP3     2296     TIP3     OH2      OT      -0.834000       15.9994           0
     24261 TIP3     2296     TIP3     H1       HT       0.417000       1.00800           0
     24262 TIP3     2296     TIP3     H2       HT       0.417000       1.00800           0
     24263 TIP3     2297     TIP3     OH2      OT      -0.834000       15.9994           0
     24264 TIP3     2297     TIP3     H1       HT       0.417000       1.00800           0
     24265 TIP3     2297     TIP3     H2       HT       0.417000       1.00800           0
     24266 TIP3     2298     TIP3     OH2      OT      -0.834000       15.9994           0
     24267 TIP3     2298     TIP3     H1       HT       0.417000       1.00800           0
     24268 TIP3     2298     TIP3     H2       HT       0.417000       1.00800           0
     24269 TIP3     2299     TIP3     OH2      OT      -0.834000       15.9994           0
     24270 TIP3     2299     TIP3     H1       HT       0.417000       1.00800           0
     24271 TIP3     2299     TIP3     H2       HT       0.417000       1.00800           0
     24272 TIP3     2300     TIP3     OH2      OT      -0.834000       15.9994           0
     24273 TIP3     2300     TIP3     H1       HT       0.417000       1.00800           0
     24274 TIP3     2300     TIP3     H2       HT       0.417000       1.00800           0
     24275 TIP3     2301     TIP3     OH2      OT      -0.834000       15.9994           0
     24276 TIP3     2301     TIP3     H1       HT       0.417000       1.00800           0
     24277 TIP3     2301     TIP3     H2       HT       0.417000       1.00800           0
     24278 TIP3     2302     TIP3     OH2      OT      -0.834000       15.9994           0
     24279 TIP3     2302     TIP3     H1       HT       0.417000       1.00800           0
     24280 TIP3     2302     TIP3     H2       HT       0.417000       1.00800           0
     24281 TIP3     2303     TIP3     OH2      OT      -0.834000       15.9994           0
     24282 TIP3     2303     TIP3     H1       HT       0.417000       1.00800           0
     24283 TIP3     2303     TIP3     H2       HT       0.417000       1.00800           0
     24284 TIP3     2304     TIP3     OH2      OT      -0.834000       15.9994           0
     24285 TIP3     2304     TIP3     H1       HT       0.417000       1.00800           0
     24286 TIP3     2304     TIP3     H2       HT       0.417000       1.00800           0
     24287 TIP3     2305     TIP3     OH2      OT      -0.834000       15.9994           0
     24288 TIP3     2305     TIP3     H1       HT       0.417000       1.00800           0
     24289 TIP3     2305     TIP3     H2       HT       0.417000       1.00800           0
     24290 TIP3     2306     TIP3     OH2      OT      -0.834000       15.9994           0
     24291 TIP3     2306     TIP3     H1       HT       0.417000       1.00800           0
     24292 TIP3     2306     TIP3     H2       HT       0.417000       1.00800           0
     24293 TIP3     2307     TIP3     OH2      OT      -0.834000       15.9994           0
     24294 TIP3     2307     TIP3     H1       HT       0.417000       1.00800           0
     24295 TIP3     2307     TIP3     H2       HT       0.417000       1.00800           0
     24296 TIP3     2308     TIP3     OH2      OT      -0.834000       15.9994           0
     24297 TIP3     2308     TIP3     H1       HT       0.417000       1.00800           0
     24298 TIP3     2308     TIP3     H2       HT       0.417000       1.00800           0
     24299 TIP3     2309     TIP3     OH2      OT      -0.834000       15.9994           0
     24300 TIP3     2309     TIP3     H1       HT       0.417000       1.00800           0
     24301 TIP3     2309     TIP3     H2       HT       0.417000       1.00800           0
     24302 TIP3     2310     TIP3     OH2      OT      -0.834000       15.9994           0
     24303 TIP3     2310     TIP3     H1       HT       0.417000       1.00800           0
     24304 TIP3     2310     TIP3     H2       HT       0.417000       1.00800           0
     24305 TIP3     2311     TIP3     OH2      OT      -0.834000       15.9994           0
     24306 TIP3     2311     TIP3     H1       HT       0.417000       1.00800           0
     24307 TIP3     2311     TIP3     H2       HT       0.417000       1.00800           0
     24308 TIP3     2312     TIP3     OH2      OT      -0.834000       15.9994           0
     24309 TIP3     2312     TIP3     H1       HT       0.417000       1.00800           0
     24310 TIP3     2312     TIP3     H2       HT       0.417000       1.00800           0
     24311 TIP3     2313     TIP3     OH2      OT      -0.834000       15.9994           0
     24312 TIP3     2313     TIP3     H1       HT       0.417000       1.00800           0
     24313 TIP3     2313     TIP3     H2       HT       0.417000       1.00800           0
     24314 TIP3     2314     TIP3     OH2      OT      -0.834000       15.9994           0
     24315 TIP3     2314     TIP3     H1       HT       0.417000       1.00800           0
     24316 TIP3     2314     TIP3     H2       HT       0.417000       1.00800           0
     24317 TIP3     2315     TIP3     OH2      OT      -0.834000       15.9994           0
     24318 TIP3     2315     TIP3     H1       HT       0.417000       1.00800           0
     24319 TIP3     2315     TIP3     H2       HT       0.417000       1.00800           0
     24320 TIP3     2316     TIP3     OH2      OT      -0.834000       15.9994           0
     24321 TIP3     2316     TIP3     H1       HT       0.417000       1.00800           0
     24322 TIP3     2316     TIP3     H2       HT       0.417000       1.00800           0
     24323 TIP3     2317     TIP3     OH2      OT      -0.834000       15.9994           0
     24324 TIP3     2317     TIP3     H1       HT       0.417000       1.00800           0
     24325 TIP3     2317     TIP3     H2       HT       0.417000       1.00800           0
     24326 TIP3     2318     TIP3     OH2      OT      -0.834000       15.9994           0
     24327 TIP3     2318     TIP3     H1       HT       0.417000       1.00800           0
     24328 TIP3     2318     TIP3     H2       HT       0.417000       1.00800           0
     24329 TIP3     2319     TIP3     OH2      OT      -0.834000       15.9994           0
     24330 TIP3     2319     TIP3     H1       HT       0.417000       1.00800           0
     24331 TIP3     2319     TIP3     H2       HT       0.417000       1.00800           0
     24332 TIP3     2320     TIP3     OH2      OT      -0.834000       15.9994           0
     24333 TIP3     2320     TIP3     H1       HT       0.417000       1.00800           0
     24334 TIP3     2320     TIP3     H2       HT       0.417000       1.00800           0
     24335 TIP3     2321     TIP3     OH2      OT      -0.834000       15.9994           0
     24336 TIP3     2321     TIP3     H1       HT       0.417000       1.00800           0
     24337 TIP3     2321     TIP3     H2       HT       0.417000       1.00800           0
     24338 TIP3     2322     TIP3     OH2      OT      -0.834000       15.9994           0
     24339 TIP3     2322     TIP3     H1       HT       0.417000       1.00800           0
     24340 TIP3     2322     TIP3     H2       HT       0.417000       1.00800           0
     24341 TIP3     2323     TIP3     OH2      OT      -0.834000       15.9994           0
     24342 TIP3     2323     TIP3     H1       HT       0.417000       1.00800           0
     24343 TIP3     2323     TIP3     H2       HT       0.417000       1.00800           0
     24344 TIP3     2324     TIP3     OH2      OT      -0.834000       15.9994           0
     24345 TIP3     2324     TIP3     H1       HT       0.417000       1.00800           0
     24346 TIP3     2324     TIP3     H2       HT       0.417000       1.00800           0
     24347 TIP3     2325     TIP3     OH2      OT      -0.834000       15.9994           0
     24348 TIP3     2325     TIP3     H1       HT       0.417000       1.00800           0
     24349 TIP3     2325     TIP3     H2       HT       0.417000       1.00800           0
     24350 TIP3     2326     TIP3     OH2      OT      -0.834000       15.9994           0
     24351 TIP3     2326     TIP3     H1       HT       0.417000       1.00800           0
     24352 TIP3     2326     TIP3     H2       HT       0.417000       1.00800           0
     24353 TIP3     2327     TIP3     OH2      OT      -0.834000       15.9994           0
     24354 TIP3     2327     TIP3     H1       HT       0.417000       1.00800           0
     24355 TIP3     2327     TIP3     H2       HT       0.417000       1.00800           0
     24356 TIP3     2328     TIP3     OH2      OT      -0.834000       15.9994           0
     24357 TIP3     2328     TIP3     H1       HT       0.417000       1.00800           0
     24358 TIP3     2328     TIP3     H2       HT       0.417000       1.00800           0
     24359 TIP3     2329     TIP3     OH2      OT      -0.834000       15.9994           0
     24360 TIP3     2329     TIP3     H1       HT       0.417000       1.00800           0
     24361 TIP3     2329     TIP3     H2       HT       0.417000       1.00800           0
     24362 TIP3     2330     TIP3     OH2      OT      -0.834000       15.9994           0
     24363 TIP3     2330     TIP3     H1       HT       0.417000       1.00800           0
     24364 TIP3     2330     TIP3     H2       HT       0.417000       1.00800           0
     24365 TIP3     2331     TIP3     OH2      OT      -0.834000       15.9994           0
     24366 TIP3     2331     TIP3     H1       HT       0.417000       1.00800           0
     24367 TIP3     2331     TIP3     H2       HT       0.417000       1.00800           0
     24368 TIP3     2332     TIP3     OH2      OT      -0.834000       15.9994           0
     24369 TIP3     2332     TIP3     H1       HT       0.417000       1.00800           0
     24370 TIP3     2332     TIP3     H2       HT       0.417000       1.00800           0
     24371 TIP3     2333     TIP3     OH2      OT      -0.834000       15.9994           0
     24372 TIP3     2333     TIP3     H1       HT       0.417000       1.00800           0
     24373 TIP3     2333     TIP3     H2       HT       0.417000       1.00800           0
     24374 TIP3     2334     TIP3     OH2      OT      -0.834000       15.9994           0
     24375 TIP3     2334     TIP3     H1       HT       0.417000       1.00800           0
     24376 TIP3     2334     TIP3     H2       HT       0.417000       1.00800           0
     24377 TIP3     2335     TIP3     OH2      OT      -0.834000       15.9994           0
     24378 TIP3     2335     TIP3     H1       HT       0.417000       1.00800           0
     24379 TIP3     2335     TIP3     H2       HT       0.417000       1.00800           0
     24380 TIP3     2336     TIP3     OH2      OT      -0.834000       15.9994           0
     24381 TIP3     2336     TIP3     H1       HT       0.417000       1.00800           0
     24382 TIP3     2336     TIP3     H2       HT       0.417000       1.00800           0
     24383 TIP3     2337     TIP3     OH2      OT      -0.834000       15.9994           0
     24384 TIP3     2337     TIP3     H1       HT       0.417000       1.00800           0
     24385 TIP3     2337     TIP3     H2       HT       0.417000       1.00800           0
     24386 TIP3     2338     TIP3     OH2      OT      -0.834000       15.9994           0
     24387 TIP3     2338     TIP3     H1       HT       0.417000       1.00800           0
     24388 TIP3     2338     TIP3     H2       HT       0.417000       1.00800           0
     24389 TIP3     2339     TIP3     OH2      OT      -0.834000       15.9994           0
     24390 TIP3     2339     TIP3     H1       HT       0.417000       1.00800           0
     24391 TIP3     2339     TIP3     H2       HT       0.417000       1.00800           0
     24392 TIP3     2340     TIP3     OH2      OT      -0.834000       15.9994           0
     24393 TIP3     2340     TIP3     H1       HT       0.417000       1.00800           0
     24394 TIP3     2340     TIP3     H2       HT       0.417000       1.00800           0
     24395 TIP3     2341     TIP3     OH2      OT      -0.834000       15.9994           0
     24396 TIP3     2341     TIP3     H1       HT       0.417000       1.00800           0
     24397 TIP3     2341     TIP3     H2       HT       0.417000       1.00800           0
     24398 TIP3     2342     TIP3     OH2      OT      -0.834000       15.9994           0
     24399 TIP3     2342     TIP3     H1       HT       0.417000       1.00800           0
     24400 TIP3     2342     TIP3     H2       HT       0.417000       1.00800           0
     24401 TIP3     2343     TIP3     OH2      OT      -0.834000       15.9994           0
     24402 TIP3     2343     TIP3     H1       HT       0.417000       1.00800           0
     24403 TIP3     2343     TIP3     H2       HT       0.417000       1.00800           0
     24404 TIP3     2344     TIP3     OH2      OT      -0.834000       15.9994           0
     24405 TIP3     2344     TIP3     H1       HT       0.417000       1.00800           0
     24406 TIP3     2344     TIP3     H2       HT       0.417000       1.00800           0
     24407 TIP3     2345     TIP3     OH2      OT      -0.834000       15.9994           0
     24408 TIP3     2345     TIP3     H1       HT       0.417000       1.00800           0
     24409 TIP3     2345     TIP3     H2       HT       0.417000       1.00800           0
     24410 TIP3     2346     TIP3     OH2      OT      -0.834000       15.9994           0
     24411 TIP3     2346     TIP3     H1       HT       0.417000       1.00800           0
     24412 TIP3     2346     TIP3     H2       HT       0.417000       1.00800           0
     24413 TIP3     2347     TIP3     OH2      OT      -0.834000       15.9994           0
     24414 TIP3     2347     TIP3     H1       HT       0.417000       1.00800           0
     24415 TIP3     2347     TIP3     H2       HT       0.417000       1.00800           0
     24416 TIP3     2348     TIP3     OH2      OT      -0.834000       15.9994           0
     24417 TIP3     2348     TIP3     H1       HT       0.417000       1.00800           0
     24418 TIP3     2348     TIP3     H2       HT       0.417000       1.00800           0
     24419 TIP3     2349     TIP3     OH2      OT      -0.834000       15.9994           0
     24420 TIP3     2349     TIP3     H1       HT       0.417000       1.00800           0
     24421 TIP3     2349     TIP3     H2       HT       0.417000       1.00800           0
     24422 TIP3     2350     TIP3     OH2      OT      -0.834000       15.9994           0
     24423 TIP3     2350     TIP3     H1       HT       0.417000       1.00800           0
     24424 TIP3     2350     TIP3     H2       HT       0.417000       1.00800           0
     24425 TIP3     2351     TIP3     OH2      OT      -0.834000       15.9994           0
     24426 TIP3     2351     TIP3     H1       HT       0.417000       1.00800           0
     24427 TIP3     2351     TIP3     H2       HT       0.417000       1.00800           0
     24428 TIP3     2352     TIP3     OH2      OT      -0.834000       15.9994           0
     24429 TIP3     2352     TIP3     H1       HT       0.417000       1.00800           0
     24430 TIP3     2352     TIP3     H2       HT       0.417000       1.00800           0
     24431 TIP3     2353     TIP3     OH2      OT      -0.834000       15.9994           0
     24432 TIP3     2353     TIP3     H1       HT       0.417000       1.00800           0
     24433 TIP3     2353     TIP3     H2       HT       0.417000       1.00800           0
     24434 TIP3     2354     TIP3     OH2      OT      -0.834000       15.9994           0
     24435 TIP3     2354     TIP3     H1       HT       0.417000       1.00800           0
     24436 TIP3     2354     TIP3     H2       HT       0.417000       1.00800           0
     24437 TIP3     2355     TIP3     OH2      OT      -0.834000       15.9994           0
     24438 TIP3     2355     TIP3     H1       HT       0.417000       1.00800           0
     24439 TIP3     2355     TIP3     H2       HT       0.417000       1.00800           0
     24440 TIP3     2356     TIP3     OH2      OT      -0.834000       15.9994           0
     24441 TIP3     2356     TIP3     H1       HT       0.417000       1.00800           0
     24442 TIP3     2356     TIP3     H2       HT       0.417000       1.00800           0
     24443 TIP3     2357     TIP3     OH2      OT      -0.834000       15.9994           0
     24444 TIP3     2357     TIP3     H1       HT       0.417000       1.00800           0
     24445 TIP3     2357     TIP3     H2       HT       0.417000       1.00800           0
     24446 TIP3     2358     TIP3     OH2      OT      -0.834000       15.9994           0
     24447 TIP3     2358     TIP3     H1       HT       0.417000       1.00800           0
     24448 TIP3     2358     TIP3     H2       HT       0.417000       1.00800           0
     24449 TIP3     2359     TIP3     OH2      OT      -0.834000       15.9994           0
     24450 TIP3     2359     TIP3     H1       HT       0.417000       1.00800           0
     24451 TIP3     2359     TIP3     H2       HT       0.417000       1.00800           0
     24452 TIP3     2360     TIP3     OH2      OT      -0.834000       15.9994           0
     24453 TIP3     2360     TIP3     H1       HT       0.417000       1.00800           0
     24454 TIP3     2360     TIP3     H2       HT       0.417000       1.00800           0
     24455 TIP3     2361     TIP3     OH2      OT      -0.834000       15.9994           0
     24456 TIP3     2361     TIP3     H1       HT       0.417000       1.00800           0
     24457 TIP3     2361     TIP3     H2       HT       0.417000       1.00800           0
     24458 TIP3     2362     TIP3     OH2      OT      -0.834000       15.9994           0
     24459 TIP3     2362     TIP3     H1       HT       0.417000       1.00800           0
     24460 TIP3     2362     TIP3     H2       HT       0.417000       1.00800           0
     24461 TIP3     2363     TIP3     OH2      OT      -0.834000       15.9994           0
     24462 TIP3     2363     TIP3     H1       HT       0.417000       1.00800           0
     24463 TIP3     2363     TIP3     H2       HT       0.417000       1.00800           0
     24464 TIP3     2364     TIP3     OH2      OT      -0.834000       15.9994           0
     24465 TIP3     2364     TIP3     H1       HT       0.417000       1.00800           0
     24466 TIP3     2364     TIP3     H2       HT       0.417000       1.00800           0
     24467 TIP3     2365     TIP3     OH2      OT      -0.834000       15.9994           0
     24468 TIP3     2365     TIP3     H1       HT       0.417000       1.00800           0
     24469 TIP3     2365     TIP3     H2       HT       0.417000       1.00800           0
     24470 TIP3     2366     TIP3     OH2      OT      -0.834000       15.9994           0
     24471 TIP3     2366     TIP3     H1       HT       0.417000       1.00800           0
     24472 TIP3     2366     TIP3     H2       HT       0.417000       1.00800           0
     24473 TIP3     2367     TIP3     OH2      OT      -0.834000       15.9994           0
     24474 TIP3     2367     TIP3     H1       HT       0.417000       1.00800           0
     24475 TIP3     2367     TIP3     H2       HT       0.417000       1.00800           0
     24476 TIP3     2368     TIP3     OH2      OT      -0.834000       15.9994           0
     24477 TIP3     2368     TIP3     H1       HT       0.417000       1.00800           0
     24478 TIP3     2368     TIP3     H2       HT       0.417000       1.00800           0
     24479 TIP3     2369     TIP3     OH2      OT      -0.834000       15.9994           0
     24480 TIP3     2369     TIP3     H1       HT       0.417000       1.00800           0
     24481 TIP3     2369     TIP3     H2       HT       0.417000       1.00800           0
     24482 TIP3     2370     TIP3     OH2      OT      -0.834000       15.9994           0
     24483 TIP3     2370     TIP3     H1       HT       0.417000       1.00800           0
     24484 TIP3     2370     TIP3     H2       HT       0.417000       1.00800           0
     24485 TIP3     2371     TIP3     OH2      OT      -0.834000       15.9994           0
     24486 TIP3     2371     TIP3     H1       HT       0.417000       1.00800           0
     24487 TIP3     2371     TIP3     H2       HT       0.417000       1.00800           0
     24488 TIP3     2372     TIP3     OH2      OT      -0.834000       15.9994           0
     24489 TIP3     2372     TIP3     H1       HT       0.417000       1.00800           0
     24490 TIP3     2372     TIP3     H2       HT       0.417000       1.00800           0
     24491 TIP3     2373     TIP3     OH2      OT      -0.834000       15.9994           0
     24492 TIP3     2373     TIP3     H1       HT       0.417000       1.00800           0
     24493 TIP3     2373     TIP3     H2       HT       0.417000       1.00800           0
     24494 TIP3     2374     TIP3     OH2      OT      -0.834000       15.9994           0
     24495 TIP3     2374     TIP3     H1       HT       0.417000       1.00800           0
     24496 TIP3     2374     TIP3     H2       HT       0.417000       1.00800           0
     24497 TIP3     2375     TIP3     OH2      OT      -0.834000       15.9994           0
     24498 TIP3     2375     TIP3     H1       HT       0.417000       1.00800           0
     24499 TIP3     2375     TIP3     H2       HT       0.417000       1.00800           0
     24500 TIP3     2376     TIP3     OH2      OT      -0.834000       15.9994           0
     24501 TIP3     2376     TIP3     H1       HT       0.417000       1.00800           0
     24502 TIP3     2376     TIP3     H2       HT       0.417000       1.00800           0
     24503 TIP3     2377     TIP3     OH2      OT      -0.834000       15.9994           0
     24504 TIP3     2377     TIP3     H1       HT       0.417000       1.00800           0
     24505 TIP3     2377     TIP3     H2       HT       0.417000       1.00800           0
     24506 TIP3     2378     TIP3     OH2      OT      -0.834000       15.9994           0
     24507 TIP3     2378     TIP3     H1       HT       0.417000       1.00800           0
     24508 TIP3     2378     TIP3     H2       HT       0.417000       1.00800           0
     24509 TIP3     2379     TIP3     OH2      OT      -0.834000       15.9994           0
     24510 TIP3     2379     TIP3     H1       HT       0.417000       1.00800           0
     24511 TIP3     2379     TIP3     H2       HT       0.417000       1.00800           0
     24512 TIP3     2380     TIP3     OH2      OT      -0.834000       15.9994           0
     24513 TIP3     2380     TIP3     H1       HT       0.417000       1.00800           0
     24514 TIP3     2380     TIP3     H2       HT       0.417000       1.00800           0
     24515 TIP3     2381     TIP3     OH2      OT      -0.834000       15.9994           0
     24516 TIP3     2381     TIP3     H1       HT       0.417000       1.00800           0
     24517 TIP3     2381     TIP3     H2       HT       0.417000       1.00800           0
     24518 TIP3     2382     TIP3     OH2      OT      -0.834000       15.9994           0
     24519 TIP3     2382     TIP3     H1       HT       0.417000       1.00800           0
     24520 TIP3     2382     TIP3     H2       HT       0.417000       1.00800           0
     24521 TIP3     2383     TIP3     OH2      OT      -0.834000       15.9994           0
     24522 TIP3     2383     TIP3     H1       HT       0.417000       1.00800           0
     24523 TIP3     2383     TIP3     H2       HT       0.417000       1.00800           0
     24524 TIP3     2384     TIP3     OH2      OT      -0.834000       15.9994           0
     24525 TIP3     2384     TIP3     H1       HT       0.417000       1.00800           0
     24526 TIP3     2384     TIP3     H2       HT       0.417000       1.00800           0
     24527 TIP3     2385     TIP3     OH2      OT      -0.834000       15.9994           0
     24528 TIP3     2385     TIP3     H1       HT       0.417000       1.00800           0
     24529 TIP3     2385     TIP3     H2       HT       0.417000       1.00800           0
     24530 TIP3     2386     TIP3     OH2      OT      -0.834000       15.9994           0
     24531 TIP3     2386     TIP3     H1       HT       0.417000       1.00800           0
     24532 TIP3     2386     TIP3     H2       HT       0.417000       1.00800           0
     24533 TIP3     2387     TIP3     OH2      OT      -0.834000       15.9994           0
     24534 TIP3     2387     TIP3     H1       HT       0.417000       1.00800           0
     24535 TIP3     2387     TIP3     H2       HT       0.417000       1.00800           0
     24536 TIP3     2388     TIP3     OH2      OT      -0.834000       15.9994           0
     24537 TIP3     2388     TIP3     H1       HT       0.417000       1.00800           0
     24538 TIP3     2388     TIP3     H2       HT       0.417000       1.00800           0
     24539 TIP3     2389     TIP3     OH2      OT      -0.834000       15.9994           0
     24540 TIP3     2389     TIP3     H1       HT       0.417000       1.00800           0
     24541 TIP3     2389     TIP3     H2       HT       0.417000       1.00800           0
     24542 TIP3     2390     TIP3     OH2      OT      -0.834000       15.9994           0
     24543 TIP3     2390     TIP3     H1       HT       0.417000       1.00800           0
     24544 TIP3     2390     TIP3     H2       HT       0.417000       1.00800           0
     24545 TIP3     2391     TIP3     OH2      OT      -0.834000       15.9994           0
     24546 TIP3     2391     TIP3     H1       HT       0.417000       1.00800           0
     24547 TIP3     2391     TIP3     H2       HT       0.417000       1.00800           0
     24548 TIP3     2392     TIP3     OH2      OT      -0.834000       15.9994           0
     24549 TIP3     2392     TIP3     H1       HT       0.417000       1.00800           0
     24550 TIP3     2392     TIP3     H2       HT       0.417000       1.00800           0
     24551 TIP3     2393     TIP3     OH2      OT      -0.834000       15.9994           0
     24552 TIP3     2393     TIP3     H1       HT       0.417000       1.00800           0
     24553 TIP3     2393     TIP3     H2       HT       0.417000       1.00800           0
     24554 TIP3     2394     TIP3     OH2      OT      -0.834000       15.9994           0
     24555 TIP3     2394     TIP3     H1       HT       0.417000       1.00800           0
     24556 TIP3     2394     TIP3     H2       HT       0.417000       1.00800           0
     24557 TIP3     2395     TIP3     OH2      OT      -0.834000       15.9994           0
     24558 TIP3     2395     TIP3     H1       HT       0.417000       1.00800           0
     24559 TIP3     2395     TIP3     H2       HT       0.417000       1.00800           0
     24560 TIP3     2396     TIP3     OH2      OT      -0.834000       15.9994           0
     24561 TIP3     2396     TIP3     H1       HT       0.417000       1.00800           0
     24562 TIP3     2396     TIP3     H2       HT       0.417000       1.00800           0
     24563 TIP3     2397     TIP3     OH2      OT      -0.834000       15.9994           0
     24564 TIP3     2397     TIP3     H1       HT       0.417000       1.00800           0
     24565 TIP3     2397     TIP3     H2       HT       0.417000       1.00800           0
     24566 TIP3     2398     TIP3     OH2      OT      -0.834000       15.9994           0
     24567 TIP3     2398     TIP3     H1       HT       0.417000       1.00800           0
     24568 TIP3     2398     TIP3     H2       HT       0.417000       1.00800           0
     24569 TIP3     2399     TIP3     OH2      OT      -0.834000       15.9994           0
     24570 TIP3     2399     TIP3     H1       HT       0.417000       1.00800           0
     24571 TIP3     2399     TIP3     H2       HT       0.417000       1.00800           0
     24572 TIP3     2400     TIP3     OH2      OT      -0.834000       15.9994           0
     24573 TIP3     2400     TIP3     H1       HT       0.417000       1.00800           0
     24574 TIP3     2400     TIP3     H2       HT       0.417000       1.00800           0
     24575 TIP3     2401     TIP3     OH2      OT      -0.834000       15.9994           0
     24576 TIP3     2401     TIP3     H1       HT       0.417000       1.00800           0
     24577 TIP3     2401     TIP3     H2       HT       0.417000       1.00800           0
     24578 TIP3     2402     TIP3     OH2      OT      -0.834000       15.9994           0
     24579 TIP3     2402     TIP3     H1       HT       0.417000       1.00800           0
     24580 TIP3     2402     TIP3     H2       HT       0.417000       1.00800           0
     24581 TIP3     2403     TIP3     OH2      OT      -0.834000       15.9994           0
     24582 TIP3     2403     TIP3     H1       HT       0.417000       1.00800           0
     24583 TIP3     2403     TIP3     H2       HT       0.417000       1.00800           0
     24584 TIP3     2404     TIP3     OH2      OT      -0.834000       15.9994           0
     24585 TIP3     2404     TIP3     H1       HT       0.417000       1.00800           0
     24586 TIP3     2404     TIP3     H2       HT       0.417000       1.00800           0
     24587 TIP3     2405     TIP3     OH2      OT      -0.834000       15.9994           0
     24588 TIP3     2405     TIP3     H1       HT       0.417000       1.00800           0
     24589 TIP3     2405     TIP3     H2       HT       0.417000       1.00800           0
     24590 TIP3     2406     TIP3     OH2      OT      -0.834000       15.9994           0
     24591 TIP3     2406     TIP3     H1       HT       0.417000       1.00800           0
     24592 TIP3     2406     TIP3     H2       HT       0.417000       1.00800           0
     24593 TIP3     2407     TIP3     OH2      OT      -0.834000       15.9994           0
     24594 TIP3     2407     TIP3     H1       HT       0.417000       1.00800           0
     24595 TIP3     2407     TIP3     H2       HT       0.417000       1.00800           0
     24596 TIP3     2408     TIP3     OH2      OT      -0.834000       15.9994           0
     24597 TIP3     2408     TIP3     H1       HT       0.417000       1.00800           0
     24598 TIP3     2408     TIP3     H2       HT       0.417000       1.00800           0
     24599 TIP3     2409     TIP3     OH2      OT      -0.834000       15.9994           0
     24600 TIP3     2409     TIP3     H1       HT       0.417000       1.00800           0
     24601 TIP3     2409     TIP3     H2       HT       0.417000       1.00800           0
     24602 TIP3     2410     TIP3     OH2      OT      -0.834000       15.9994           0
     24603 TIP3     2410     TIP3     H1       HT       0.417000       1.00800           0
     24604 TIP3     2410     TIP3     H2       HT       0.417000       1.00800           0
     24605 TIP3     2411     TIP3     OH2      OT      -0.834000       15.9994           0
     24606 TIP3     2411     TIP3     H1       HT       0.417000       1.00800           0
     24607 TIP3     2411     TIP3     H2       HT       0.417000       1.00800           0
     24608 TIP3     2412     TIP3     OH2      OT      -0.834000       15.9994           0
     24609 TIP3     2412     TIP3     H1       HT       0.417000       1.00800           0
     24610 TIP3     2412     TIP3     H2       HT       0.417000       1.00800           0
     24611 TIP3     2413     TIP3     OH2      OT      -0.834000       15.9994           0
     24612 TIP3     2413     TIP3     H1       HT       0.417000       1.00800           0
     24613 TIP3     2413     TIP3     H2       HT       0.417000       1.00800           0
     24614 TIP3     2414     TIP3     OH2      OT      -0.834000       15.9994           0
     24615 TIP3     2414     TIP3     H1       HT       0.417000       1.00800           0
     24616 TIP3     2414     TIP3     H2       HT       0.417000       1.00800           0
     24617 TIP3     2415     TIP3     OH2      OT      -0.834000       15.9994           0
     24618 TIP3     2415     TIP3     H1       HT       0.417000       1.00800           0
     24619 TIP3     2415     TIP3     H2       HT       0.417000       1.00800           0
     24620 TIP3     2416     TIP3     OH2      OT      -0.834000       15.9994           0
     24621 TIP3     2416     TIP3     H1       HT       0.417000       1.00800           0
     24622 TIP3     2416     TIP3     H2       HT       0.417000       1.00800           0
     24623 TIP3     2417     TIP3     OH2      OT      -0.834000       15.9994           0
     24624 TIP3     2417     TIP3     H1       HT       0.417000       1.00800           0
     24625 TIP3     2417     TIP3     H2       HT       0.417000       1.00800           0
     24626 TIP3     2418     TIP3     OH2      OT      -0.834000       15.9994           0
     24627 TIP3     2418     TIP3     H1       HT       0.417000       1.00800           0
     24628 TIP3     2418     TIP3     H2       HT       0.417000       1.00800           0
     24629 TIP3     2419     TIP3     OH2      OT      -0.834000       15.9994           0
     24630 TIP3     2419     TIP3     H1       HT       0.417000       1.00800           0
     24631 TIP3     2419     TIP3     H2       HT       0.417000       1.00800           0
     24632 TIP3     2420     TIP3     OH2      OT      -0.834000       15.9994           0
     24633 TIP3     2420     TIP3     H1       HT       0.417000       1.00800           0
     24634 TIP3     2420     TIP3     H2       HT       0.417000       1.00800           0
     24635 TIP3     2421     TIP3     OH2      OT      -0.834000       15.9994           0
     24636 TIP3     2421     TIP3     H1       HT       0.417000       1.00800           0
     24637 TIP3     2421     TIP3     H2       HT       0.417000       1.00800           0
     24638 TIP3     2422     TIP3     OH2      OT      -0.834000       15.9994           0
     24639 TIP3     2422     TIP3     H1       HT       0.417000       1.00800           0
     24640 TIP3     2422     TIP3     H2       HT       0.417000       1.00800           0
     24641 TIP3     2423     TIP3     OH2      OT      -0.834000       15.9994           0
     24642 TIP3     2423     TIP3     H1       HT       0.417000       1.00800           0
     24643 TIP3     2423     TIP3     H2       HT       0.417000       1.00800           0
     24644 TIP3     2424     TIP3     OH2      OT      -0.834000       15.9994           0
     24645 TIP3     2424     TIP3     H1       HT       0.417000       1.00800           0
     24646 TIP3     2424     TIP3     H2       HT       0.417000       1.00800           0
     24647 TIP3     2425     TIP3     OH2      OT      -0.834000       15.9994           0
     24648 TIP3     2425     TIP3     H1       HT       0.417000       1.00800           0
     24649 TIP3     2425     TIP3     H2       HT       0.417000       1.00800           0
     24650 TIP3     2426     TIP3     OH2      OT      -0.834000       15.9994           0
     24651 TIP3     2426     TIP3     H1       HT       0.417000       1.00800           0
     24652 TIP3     2426     TIP3     H2       HT       0.417000       1.00800           0
     24653 TIP3     2427     TIP3     OH2      OT      -0.834000       15.9994           0
     24654 TIP3     2427     TIP3     H1       HT       0.417000       1.00800           0
     24655 TIP3     2427     TIP3     H2       HT       0.417000       1.00800           0
     24656 TIP3     2428     TIP3     OH2      OT      -0.834000       15.9994           0
     24657 TIP3     2428     TIP3     H1       HT       0.417000       1.00800           0
     24658 TIP3     2428     TIP3     H2       HT       0.417000       1.00800           0
     24659 TIP3     2429     TIP3     OH2      OT      -0.834000       15.9994           0
     24660 TIP3     2429     TIP3     H1       HT       0.417000       1.00800           0
     24661 TIP3     2429     TIP3     H2       HT       0.417000       1.00800           0
     24662 TIP3     2430     TIP3     OH2      OT      -0.834000       15.9994           0
     24663 TIP3     2430     TIP3     H1       HT       0.417000       1.00800           0
     24664 TIP3     2430     TIP3     H2       HT       0.417000       1.00800           0
     24665 TIP3     2431     TIP3     OH2      OT      -0.834000       15.9994           0
     24666 TIP3     2431     TIP3     H1       HT       0.417000       1.00800           0
     24667 TIP3     2431     TIP3     H2       HT       0.417000       1.00800           0
     24668 TIP3     2432     TIP3     OH2      OT      -0.834000       15.9994           0
     24669 TIP3     2432     TIP3     H1       HT       0.417000       1.00800           0
     24670 TIP3     2432     TIP3     H2       HT       0.417000       1.00800           0
     24671 TIP3     2433     TIP3     OH2      OT      -0.834000       15.9994           0
     24672 TIP3     2433     TIP3     H1       HT       0.417000       1.00800           0
     24673 TIP3     2433     TIP3     H2       HT       0.417000       1.00800           0
     24674 TIP3     2434     TIP3     OH2      OT      -0.834000       15.9994           0
     24675 TIP3     2434     TIP3     H1       HT       0.417000       1.00800           0
     24676 TIP3     2434     TIP3     H2       HT       0.417000       1.00800           0
     24677 TIP3     2435     TIP3     OH2      OT      -0.834000       15.9994           0
     24678 TIP3     2435     TIP3     H1       HT       0.417000       1.00800           0
     24679 TIP3     2435     TIP3     H2       HT       0.417000       1.00800           0
     24680 TIP3     2436     TIP3     OH2      OT      -0.834000       15.9994           0
     24681 TIP3     2436     TIP3     H1       HT       0.417000       1.00800           0
     24682 TIP3     2436     TIP3     H2       HT       0.417000       1.00800           0
     24683 TIP3     2437     TIP3     OH2      OT      -0.834000       15.9994           0
     24684 TIP3     2437     TIP3     H1       HT       0.417000       1.00800           0
     24685 TIP3     2437     TIP3     H2       HT       0.417000       1.00800           0
     24686 TIP3     2438     TIP3     OH2      OT      -0.834000       15.9994           0
     24687 TIP3     2438     TIP3     H1       HT       0.417000       1.00800           0
     24688 TIP3     2438     TIP3     H2       HT       0.417000       1.00800           0
     24689 TIP3     2439     TIP3     OH2      OT      -0.834000       15.9994           0
     24690 TIP3     2439     TIP3     H1       HT       0.417000       1.00800           0
     24691 TIP3     2439     TIP3     H2       HT       0.417000       1.00800           0
     24692 TIP3     2440     TIP3     OH2      OT      -0.834000       15.9994           0
     24693 TIP3     2440     TIP3     H1       HT       0.417000       1.00800           0
     24694 TIP3     2440     TIP3     H2       HT       0.417000       1.00800           0
     24695 TIP3     2441     TIP3     OH2      OT      -0.834000       15.9994           0
     24696 TIP3     2441     TIP3     H1       HT       0.417000       1.00800           0
     24697 TIP3     2441     TIP3     H2       HT       0.417000       1.00800           0
     24698 TIP3     2442     TIP3     OH2      OT      -0.834000       15.9994           0
     24699 TIP3     2442     TIP3     H1       HT       0.417000       1.00800           0
     24700 TIP3     2442     TIP3     H2       HT       0.417000       1.00800           0
     24701 TIP3     2443     TIP3     OH2      OT      -0.834000       15.9994           0
     24702 TIP3     2443     TIP3     H1       HT       0.417000       1.00800           0
     24703 TIP3     2443     TIP3     H2       HT       0.417000       1.00800           0
     24704 TIP3     2444     TIP3     OH2      OT      -0.834000       15.9994           0
     24705 TIP3     2444     TIP3     H1       HT       0.417000       1.00800           0
     24706 TIP3     2444     TIP3     H2       HT       0.417000       1.00800           0
     24707 TIP3     2445     TIP3     OH2      OT      -0.834000       15.9994           0
     24708 TIP3     2445     TIP3     H1       HT       0.417000       1.00800           0
     24709 TIP3     2445     TIP3     H2       HT       0.417000       1.00800           0
     24710 TIP3     2446     TIP3     OH2      OT      -0.834000       15.9994           0
     24711 TIP3     2446     TIP3     H1       HT       0.417000       1.00800           0
     24712 TIP3     2446     TIP3     H2       HT       0.417000       1.00800           0
     24713 TIP3     2447     TIP3     OH2      OT      -0.834000       15.9994           0
     24714 TIP3     2447     TIP3     H1       HT       0.417000       1.00800           0
     24715 TIP3     2447     TIP3     H2       HT       0.417000       1.00800           0
     24716 TIP3     2448     TIP3     OH2      OT      -0.834000       15.9994           0
     24717 TIP3     2448     TIP3     H1       HT       0.417000       1.00800           0
     24718 TIP3     2448     TIP3     H2       HT       0.417000       1.00800           0
     24719 TIP3     2449     TIP3     OH2      OT      -0.834000       15.9994           0
     24720 TIP3     2449     TIP3     H1       HT       0.417000       1.00800           0
     24721 TIP3     2449     TIP3     H2       HT       0.417000       1.00800           0
     24722 TIP3     2450     TIP3     OH2      OT      -0.834000       15.9994           0
     24723 TIP3     2450     TIP3     H1       HT       0.417000       1.00800           0
     24724 TIP3     2450     TIP3     H2       HT       0.417000       1.00800           0
     24725 TIP3     2451     TIP3     OH2      OT      -0.834000       15.9994           0
     24726 TIP3     2451     TIP3     H1       HT       0.417000       1.00800           0
     24727 TIP3     2451     TIP3     H2       HT       0.417000       1.00800           0
     24728 TIP3     2452     TIP3     OH2      OT      -0.834000       15.9994           0
     24729 TIP3     2452     TIP3     H1       HT       0.417000       1.00800           0
     24730 TIP3     2452     TIP3     H2       HT       0.417000       1.00800           0
     24731 TIP3     2453     TIP3     OH2      OT      -0.834000       15.9994           0
     24732 TIP3     2453     TIP3     H1       HT       0.417000       1.00800           0
     24733 TIP3     2453     TIP3     H2       HT       0.417000       1.00800           0
     24734 TIP3     2454     TIP3     OH2      OT      -0.834000       15.9994           0
     24735 TIP3     2454     TIP3     H1       HT       0.417000       1.00800           0
     24736 TIP3     2454     TIP3     H2       HT       0.417000       1.00800           0
     24737 TIP3     2455     TIP3     OH2      OT      -0.834000       15.9994           0
     24738 TIP3     2455     TIP3     H1       HT       0.417000       1.00800           0
     24739 TIP3     2455     TIP3     H2       HT       0.417000       1.00800           0
     24740 TIP3     2456     TIP3     OH2      OT      -0.834000       15.9994           0
     24741 TIP3     2456     TIP3     H1       HT       0.417000       1.00800           0
     24742 TIP3     2456     TIP3     H2       HT       0.417000       1.00800           0
     24743 TIP3     2457     TIP3     OH2      OT      -0.834000       15.9994           0
     24744 TIP3     2457     TIP3     H1       HT       0.417000       1.00800           0
     24745 TIP3     2457     TIP3     H2       HT       0.417000       1.00800           0
     24746 TIP3     2458     TIP3     OH2      OT      -0.834000       15.9994           0
     24747 TIP3     2458     TIP3     H1       HT       0.417000       1.00800           0
     24748 TIP3     2458     TIP3     H2       HT       0.417000       1.00800           0
     24749 TIP3     2459     TIP3     OH2      OT      -0.834000       15.9994           0
     24750 TIP3     2459     TIP3     H1       HT       0.417000       1.00800           0
     24751 TIP3     2459     TIP3     H2       HT       0.417000       1.00800           0
     24752 TIP3     2460     TIP3     OH2      OT      -0.834000       15.9994           0
     24753 TIP3     2460     TIP3     H1       HT       0.417000       1.00800           0
     24754 TIP3     2460     TIP3     H2       HT       0.417000       1.00800           0
     24755 TIP3     2461     TIP3     OH2      OT      -0.834000       15.9994           0
     24756 TIP3     2461     TIP3     H1       HT       0.417000       1.00800           0
     24757 TIP3     2461     TIP3     H2       HT       0.417000       1.00800           0
     24758 TIP3     2462     TIP3     OH2      OT      -0.834000       15.9994           0
     24759 TIP3     2462     TIP3     H1       HT       0.417000       1.00800           0
     24760 TIP3     2462     TIP3     H2       HT       0.417000       1.00800           0
     24761 TIP3     2463     TIP3     OH2      OT      -0.834000       15.9994           0
     24762 TIP3     2463     TIP3     H1       HT       0.417000       1.00800           0
     24763 TIP3     2463     TIP3     H2       HT       0.417000       1.00800           0
     24764 TIP3     2464     TIP3     OH2      OT      -0.834000       15.9994           0
     24765 TIP3     2464     TIP3     H1       HT       0.417000       1.00800           0
     24766 TIP3     2464     TIP3     H2       HT       0.417000       1.00800           0
     24767 TIP3     2465     TIP3     OH2      OT      -0.834000       15.9994           0
     24768 TIP3     2465     TIP3     H1       HT       0.417000       1.00800           0
     24769 TIP3     2465     TIP3     H2       HT       0.417000       1.00800           0
     24770 TIP3     2466     TIP3     OH2      OT      -0.834000       15.9994           0
     24771 TIP3     2466     TIP3     H1       HT       0.417000       1.00800           0
     24772 TIP3     2466     TIP3     H2       HT       0.417000       1.00800           0
     24773 TIP3     2467     TIP3     OH2      OT      -0.834000       15.9994           0
     24774 TIP3     2467     TIP3     H1       HT       0.417000       1.00800           0
     24775 TIP3     2467     TIP3     H2       HT       0.417000       1.00800           0
     24776 TIP3     2468     TIP3     OH2      OT      -0.834000       15.9994           0
     24777 TIP3     2468     TIP3     H1       HT       0.417000       1.00800           0
     24778 TIP3     2468     TIP3     H2       HT       0.417000       1.00800           0
     24779 TIP3     2469     TIP3     OH2      OT      -0.834000       15.9994           0
     24780 TIP3     2469     TIP3     H1       HT       0.417000       1.00800           0
     24781 TIP3     2469     TIP3     H2       HT       0.417000       1.00800           0
     24782 TIP3     2470     TIP3     OH2      OT      -0.834000       15.9994           0
     24783 TIP3     2470     TIP3     H1       HT       0.417000       1.00800           0
     24784 TIP3     2470     TIP3     H2       HT       0.417000       1.00800           0
     24785 TIP3     2471     TIP3     OH2      OT      -0.834000       15.9994           0
     24786 TIP3     2471     TIP3     H1       HT       0.417000       1.00800           0
     24787 TIP3     2471     TIP3     H2       HT       0.417000       1.00800           0
     24788 TIP3     2472     TIP3     OH2      OT      -0.834000       15.9994           0
     24789 TIP3     2472     TIP3     H1       HT       0.417000       1.00800           0
     24790 TIP3     2472     TIP3     H2       HT       0.417000       1.00800           0
     24791 TIP3     2473     TIP3     OH2      OT      -0.834000       15.9994           0
     24792 TIP3     2473     TIP3     H1       HT       0.417000       1.00800           0
     24793 TIP3     2473     TIP3     H2       HT       0.417000       1.00800           0
     24794 TIP3     2474     TIP3     OH2      OT      -0.834000       15.9994           0
     24795 TIP3     2474     TIP3     H1       HT       0.417000       1.00800           0
     24796 TIP3     2474     TIP3     H2       HT       0.417000       1.00800           0
     24797 TIP3     2475     TIP3     OH2      OT      -0.834000       15.9994           0
     24798 TIP3     2475     TIP3     H1       HT       0.417000       1.00800           0
     24799 TIP3     2475     TIP3     H2       HT       0.417000       1.00800           0
     24800 TIP3     2476     TIP3     OH2      OT      -0.834000       15.9994           0
     24801 TIP3     2476     TIP3     H1       HT       0.417000       1.00800           0
     24802 TIP3     2476     TIP3     H2       HT       0.417000       1.00800           0
     24803 TIP3     2477     TIP3     OH2      OT      -0.834000       15.9994           0
     24804 TIP3     2477     TIP3     H1       HT       0.417000       1.00800           0
     24805 TIP3     2477     TIP3     H2       HT       0.417000       1.00800           0
     24806 TIP3     2478     TIP3     OH2      OT      -0.834000       15.9994           0
     24807 TIP3     2478     TIP3     H1       HT       0.417000       1.00800           0
     24808 TIP3     2478     TIP3     H2       HT       0.417000       1.00800           0
     24809 TIP3     2479     TIP3     OH2      OT      -0.834000       15.9994           0
     24810 TIP3     2479     TIP3     H1       HT       0.417000       1.00800           0
     24811 TIP3     2479     TIP3     H2       HT       0.417000       1.00800           0
     24812 TIP3     2480     TIP3     OH2      OT      -0.834000       15.9994           0
     24813 TIP3     2480     TIP3     H1       HT       0.417000       1.00800           0
     24814 TIP3     2480     TIP3     H2       HT       0.417000       1.00800           0
     24815 TIP3     2481     TIP3     OH2      OT      -0.834000       15.9994           0
     24816 TIP3     2481     TIP3     H1       HT       0.417000       1.00800           0
     24817 TIP3     2481     TIP3     H2       HT       0.417000       1.00800           0
     24818 TIP3     2482     TIP3     OH2      OT      -0.834000       15.9994           0
     24819 TIP3     2482     TIP3     H1       HT       0.417000       1.00800           0
     24820 TIP3     2482     TIP3     H2       HT       0.417000       1.00800           0
     24821 TIP3     2483     TIP3     OH2      OT      -0.834000       15.9994           0
     24822 TIP3     2483     TIP3     H1       HT       0.417000       1.00800           0
     24823 TIP3     2483     TIP3     H2       HT       0.417000       1.00800           0
     24824 TIP3     2484     TIP3     OH2      OT      -0.834000       15.9994           0
     24825 TIP3     2484     TIP3     H1       HT       0.417000       1.00800           0
     24826 TIP3     2484     TIP3     H2       HT       0.417000       1.00800           0
     24827 TIP3     2485     TIP3     OH2      OT      -0.834000       15.9994           0
     24828 TIP3     2485     TIP3     H1       HT       0.417000       1.00800           0
     24829 TIP3     2485     TIP3     H2       HT       0.417000       1.00800           0
     24830 TIP3     2486     TIP3     OH2      OT      -0.834000       15.9994           0
     24831 TIP3     2486     TIP3     H1       HT       0.417000       1.00800           0
     24832 TIP3     2486     TIP3     H2       HT       0.417000       1.00800           0
     24833 TIP3     2487     TIP3     OH2      OT      -0.834000       15.9994           0
     24834 TIP3     2487     TIP3     H1       HT       0.417000       1.00800           0
     24835 TIP3     2487     TIP3     H2       HT       0.417000       1.00800           0
     24836 TIP3     2488     TIP3     OH2      OT      -0.834000       15.9994           0
     24837 TIP3     2488     TIP3     H1       HT       0.417000       1.00800           0
     24838 TIP3     2488     TIP3     H2       HT       0.417000       1.00800           0
     24839 TIP3     2489     TIP3     OH2      OT      -0.834000       15.9994           0
     24840 TIP3     2489     TIP3     H1       HT       0.417000       1.00800           0
     24841 TIP3     2489     TIP3     H2       HT       0.417000       1.00800           0
     24842 TIP3     2490     TIP3     OH2      OT      -0.834000       15.9994           0
     24843 TIP3     2490     TIP3     H1       HT       0.417000       1.00800           0
     24844 TIP3     2490     TIP3     H2       HT       0.417000       1.00800           0
     24845 TIP3     2491     TIP3     OH2      OT      -0.834000       15.9994           0
     24846 TIP3     2491     TIP3     H1       HT       0.417000       1.00800           0
     24847 TIP3     2491     TIP3     H2       HT       0.417000       1.00800           0
     24848 TIP3     2492     TIP3     OH2      OT      -0.834000       15.9994           0
     24849 TIP3     2492     TIP3     H1       HT       0.417000       1.00800           0
     24850 TIP3     2492     TIP3     H2       HT       0.417000       1.00800           0
     24851 TIP3     2493     TIP3     OH2      OT      -0.834000       15.9994           0
     24852 TIP3     2493     TIP3     H1       HT       0.417000       1.00800           0
     24853 TIP3     2493     TIP3     H2       HT       0.417000       1.00800           0
     24854 TIP3     2494     TIP3     OH2      OT      -0.834000       15.9994           0
     24855 TIP3     2494     TIP3     H1       HT       0.417000       1.00800           0
     24856 TIP3     2494     TIP3     H2       HT       0.417000       1.00800           0
     24857 TIP3     2495     TIP3     OH2      OT      -0.834000       15.9994           0
     24858 TIP3     2495     TIP3     H1       HT       0.417000       1.00800           0
     24859 TIP3     2495     TIP3     H2       HT       0.417000       1.00800           0
     24860 TIP3     2496     TIP3     OH2      OT      -0.834000       15.9994           0
     24861 TIP3     2496     TIP3     H1       HT       0.417000       1.00800           0
     24862 TIP3     2496     TIP3     H2       HT       0.417000       1.00800           0
     24863 TIP3     2497     TIP3     OH2      OT      -0.834000       15.9994           0
     24864 TIP3     2497     TIP3     H1       HT       0.417000       1.00800           0
     24865 TIP3     2497     TIP3     H2       HT       0.417000       1.00800           0
     24866 TIP3     2498     TIP3     OH2      OT      -0.834000       15.9994           0
     24867 TIP3     2498     TIP3     H1       HT       0.417000       1.00800           0
     24868 TIP3     2498     TIP3     H2       HT       0.417000       1.00800           0
     24869 TIP3     2499     TIP3     OH2      OT      -0.834000       15.9994           0
     24870 TIP3     2499     TIP3     H1       HT       0.417000       1.00800           0
     24871 TIP3     2499     TIP3     H2       HT       0.417000       1.00800           0
     24872 TIP3     2500     TIP3     OH2      OT      -0.834000       15.9994           0
     24873 TIP3     2500     TIP3     H1       HT       0.417000       1.00800           0
     24874 TIP3     2500     TIP3     H2       HT       0.417000       1.00800           0
     24875 TIP3     2501     TIP3     OH2      OT      -0.834000       15.9994           0
     24876 TIP3     2501     TIP3     H1       HT       0.417000       1.00800           0
     24877 TIP3     2501     TIP3     H2       HT       0.417000       1.00800           0
     24878 TIP3     2502     TIP3     OH2      OT      -0.834000       15.9994           0
     24879 TIP3     2502     TIP3     H1       HT       0.417000       1.00800           0
     24880 TIP3     2502     TIP3     H2       HT       0.417000       1.00800           0
     24881 TIP3     2503     TIP3     OH2      OT      -0.834000       15.9994           0
     24882 TIP3     2503     TIP3     H1       HT       0.417000       1.00800           0
     24883 TIP3     2503     TIP3     H2       HT       0.417000       1.00800           0
     24884 TIP3     2504     TIP3     OH2      OT      -0.834000       15.9994           0
     24885 TIP3     2504     TIP3     H1       HT       0.417000       1.00800           0
     24886 TIP3     2504     TIP3     H2       HT       0.417000       1.00800           0
     24887 TIP3     2505     TIP3     OH2      OT      -0.834000       15.9994           0
     24888 TIP3     2505     TIP3     H1       HT       0.417000       1.00800           0
     24889 TIP3     2505     TIP3     H2       HT       0.417000       1.00800           0
     24890 TIP3     2506     TIP3     OH2      OT      -0.834000       15.9994           0
     24891 TIP3     2506     TIP3     H1       HT       0.417000       1.00800           0
     24892 TIP3     2506     TIP3     H2       HT       0.417000       1.00800           0
     24893 TIP3     2507     TIP3     OH2      OT      -0.834000       15.9994           0
     24894 TIP3     2507     TIP3     H1       HT       0.417000       1.00800           0
     24895 TIP3     2507     TIP3     H2       HT       0.417000       1.00800           0
     24896 TIP3     2508     TIP3     OH2      OT      -0.834000       15.9994           0
     24897 TIP3     2508     TIP3     H1       HT       0.417000       1.00800           0
     24898 TIP3     2508     TIP3     H2       HT       0.417000       1.00800           0
     24899 TIP3     2509     TIP3     OH2      OT      -0.834000       15.9994           0
     24900 TIP3     2509     TIP3     H1       HT       0.417000       1.00800           0
     24901 TIP3     2509     TIP3     H2       HT       0.417000       1.00800           0
     24902 TIP3     2510     TIP3     OH2      OT      -0.834000       15.9994           0
     24903 TIP3     2510     TIP3     H1       HT       0.417000       1.00800           0
     24904 TIP3     2510     TIP3     H2       HT       0.417000       1.00800           0
     24905 TIP3     2511     TIP3     OH2      OT      -0.834000       15.9994           0
     24906 TIP3     2511     TIP3     H1       HT       0.417000       1.00800           0
     24907 TIP3     2511     TIP3     H2       HT       0.417000       1.00800           0
     24908 TIP3     2512     TIP3     OH2      OT      -0.834000       15.9994           0
     24909 TIP3     2512     TIP3     H1       HT       0.417000       1.00800           0
     24910 TIP3     2512     TIP3     H2       HT       0.417000       1.00800           0
     24911 TIP3     2513     TIP3     OH2      OT      -0.834000       15.9994           0
     24912 TIP3     2513     TIP3     H1       HT       0.417000       1.00800           0
     24913 TIP3     2513     TIP3     H2       HT       0.417000       1.00800           0
     24914 TIP3     2514     TIP3     OH2      OT      -0.834000       15.9994           0
     24915 TIP3     2514     TIP3     H1       HT       0.417000       1.00800           0
     24916 TIP3     2514     TIP3     H2       HT       0.417000       1.00800           0
     24917 TIP3     2515     TIP3     OH2      OT      -0.834000       15.9994           0
     24918 TIP3     2515     TIP3     H1       HT       0.417000       1.00800           0
     24919 TIP3     2515     TIP3     H2       HT       0.417000       1.00800           0
     24920 TIP3     2516     TIP3     OH2      OT      -0.834000       15.9994           0
     24921 TIP3     2516     TIP3     H1       HT       0.417000       1.00800           0
     24922 TIP3     2516     TIP3     H2       HT       0.417000       1.00800           0
     24923 TIP3     2517     TIP3     OH2      OT      -0.834000       15.9994           0
     24924 TIP3     2517     TIP3     H1       HT       0.417000       1.00800           0
     24925 TIP3     2517     TIP3     H2       HT       0.417000       1.00800           0
     24926 TIP3     2518     TIP3     OH2      OT      -0.834000       15.9994           0
     24927 TIP3     2518     TIP3     H1       HT       0.417000       1.00800           0
     24928 TIP3     2518     TIP3     H2       HT       0.417000       1.00800           0
     24929 TIP3     2519     TIP3     OH2      OT      -0.834000       15.9994           0
     24930 TIP3     2519     TIP3     H1       HT       0.417000       1.00800           0
     24931 TIP3     2519     TIP3     H2       HT       0.417000       1.00800           0
     24932 TIP3     2520     TIP3     OH2      OT      -0.834000       15.9994           0
     24933 TIP3     2520     TIP3     H1       HT       0.417000       1.00800           0
     24934 TIP3     2520     TIP3     H2       HT       0.417000       1.00800           0
     24935 TIP3     2521     TIP3     OH2      OT      -0.834000       15.9994           0
     24936 TIP3     2521     TIP3     H1       HT       0.417000       1.00800           0
     24937 TIP3     2521     TIP3     H2       HT       0.417000       1.00800           0
     24938 TIP3     2522     TIP3     OH2      OT      -0.834000       15.9994           0
     24939 TIP3     2522     TIP3     H1       HT       0.417000       1.00800           0
     24940 TIP3     2522     TIP3     H2       HT       0.417000       1.00800           0
     24941 TIP3     2523     TIP3     OH2      OT      -0.834000       15.9994           0
     24942 TIP3     2523     TIP3     H1       HT       0.417000       1.00800           0
     24943 TIP3     2523     TIP3     H2       HT       0.417000       1.00800           0
     24944 TIP3     2524     TIP3     OH2      OT      -0.834000       15.9994           0
     24945 TIP3     2524     TIP3     H1       HT       0.417000       1.00800           0
     24946 TIP3     2524     TIP3     H2       HT       0.417000       1.00800           0
     24947 TIP3     2525     TIP3     OH2      OT      -0.834000       15.9994           0
     24948 TIP3     2525     TIP3     H1       HT       0.417000       1.00800           0
     24949 TIP3     2525     TIP3     H2       HT       0.417000       1.00800           0
     24950 TIP3     2526     TIP3     OH2      OT      -0.834000       15.9994           0
     24951 TIP3     2526     TIP3     H1       HT       0.417000       1.00800           0
     24952 TIP3     2526     TIP3     H2       HT       0.417000       1.00800           0
     24953 TIP3     2527     TIP3     OH2      OT      -0.834000       15.9994           0
     24954 TIP3     2527     TIP3     H1       HT       0.417000       1.00800           0
     24955 TIP3     2527     TIP3     H2       HT       0.417000       1.00800           0
     24956 TIP3     2528     TIP3     OH2      OT      -0.834000       15.9994           0
     24957 TIP3     2528     TIP3     H1       HT       0.417000       1.00800           0
     24958 TIP3     2528     TIP3     H2       HT       0.417000       1.00800           0
     24959 TIP3     2529     TIP3     OH2      OT      -0.834000       15.9994           0
     24960 TIP3     2529     TIP3     H1       HT       0.417000       1.00800           0
     24961 TIP3     2529     TIP3     H2       HT       0.417000       1.00800           0
     24962 TIP3     2530     TIP3     OH2      OT      -0.834000       15.9994           0
     24963 TIP3     2530     TIP3     H1       HT       0.417000       1.00800           0
     24964 TIP3     2530     TIP3     H2       HT       0.417000       1.00800           0
     24965 TIP3     2531     TIP3     OH2      OT      -0.834000       15.9994           0
     24966 TIP3     2531     TIP3     H1       HT       0.417000       1.00800           0
     24967 TIP3     2531     TIP3     H2       HT       0.417000       1.00800           0
     24968 TIP3     2532     TIP3     OH2      OT      -0.834000       15.9994           0
     24969 TIP3     2532     TIP3     H1       HT       0.417000       1.00800           0
     24970 TIP3     2532     TIP3     H2       HT       0.417000       1.00800           0
     24971 TIP3     2533     TIP3     OH2      OT      -0.834000       15.9994           0
     24972 TIP3     2533     TIP3     H1       HT       0.417000       1.00800           0
     24973 TIP3     2533     TIP3     H2       HT       0.417000       1.00800           0
     24974 TIP3     2534     TIP3     OH2      OT      -0.834000       15.9994           0
     24975 TIP3     2534     TIP3     H1       HT       0.417000       1.00800           0
     24976 TIP3     2534     TIP3     H2       HT       0.417000       1.00800           0
     24977 TIP3     2535     TIP3     OH2      OT      -0.834000       15.9994           0
     24978 TIP3     2535     TIP3     H1       HT       0.417000       1.00800           0
     24979 TIP3     2535     TIP3     H2       HT       0.417000       1.00800           0
     24980 TIP3     2536     TIP3     OH2      OT      -0.834000       15.9994           0
     24981 TIP3     2536     TIP3     H1       HT       0.417000       1.00800           0
     24982 TIP3     2536     TIP3     H2       HT       0.417000       1.00800           0
     24983 TIP3     2537     TIP3     OH2      OT      -0.834000       15.9994           0
     24984 TIP3     2537     TIP3     H1       HT       0.417000       1.00800           0
     24985 TIP3     2537     TIP3     H2       HT       0.417000       1.00800           0
     24986 TIP3     2538     TIP3     OH2      OT      -0.834000       15.9994           0
     24987 TIP3     2538     TIP3     H1       HT       0.417000       1.00800           0
     24988 TIP3     2538     TIP3     H2       HT       0.417000       1.00800           0
     24989 TIP3     2539     TIP3     OH2      OT      -0.834000       15.9994           0
     24990 TIP3     2539     TIP3     H1       HT       0.417000       1.00800           0
     24991 TIP3     2539     TIP3     H2       HT       0.417000       1.00800           0
     24992 TIP3     2540     TIP3     OH2      OT      -0.834000       15.9994           0
     24993 TIP3     2540     TIP3     H1       HT       0.417000       1.00800           0
     24994 TIP3     2540     TIP3     H2       HT       0.417000       1.00800           0
     24995 TIP3     2541     TIP3     OH2      OT      -0.834000       15.9994           0
     24996 TIP3     2541     TIP3     H1       HT       0.417000       1.00800           0
     24997 TIP3     2541     TIP3     H2       HT       0.417000       1.00800           0
     24998 TIP3     2542     TIP3     OH2      OT      -0.834000       15.9994           0
     24999 TIP3     2542     TIP3     H1       HT       0.417000       1.00800           0
     25000 TIP3     2542     TIP3     H2       HT       0.417000       1.00800           0
     25001 TIP3     2543     TIP3     OH2      OT      -0.834000       15.9994           0
     25002 TIP3     2543     TIP3     H1       HT       0.417000       1.00800           0
     25003 TIP3     2543     TIP3     H2       HT       0.417000       1.00800           0
     25004 TIP3     2544     TIP3     OH2      OT      -0.834000       15.9994           0
     25005 TIP3     2544     TIP3     H1       HT       0.417000       1.00800           0
     25006 TIP3     2544     TIP3     H2       HT       0.417000       1.00800           0
     25007 TIP3     2545     TIP3     OH2      OT      -0.834000       15.9994           0
     25008 TIP3     2545     TIP3     H1       HT       0.417000       1.00800           0
     25009 TIP3     2545     TIP3     H2       HT       0.417000       1.00800           0
     25010 TIP3     2546     TIP3     OH2      OT      -0.834000       15.9994           0
     25011 TIP3     2546     TIP3     H1       HT       0.417000       1.00800           0
     25012 TIP3     2546     TIP3     H2       HT       0.417000       1.00800           0
     25013 TIP3     2547     TIP3     OH2      OT      -0.834000       15.9994           0
     25014 TIP3     2547     TIP3     H1       HT       0.417000       1.00800           0
     25015 TIP3     2547     TIP3     H2       HT       0.417000       1.00800           0
     25016 TIP3     2548     TIP3     OH2      OT      -0.834000       15.9994           0
     25017 TIP3     2548     TIP3     H1       HT       0.417000       1.00800           0
     25018 TIP3     2548     TIP3     H2       HT       0.417000       1.00800           0
     25019 TIP3     2549     TIP3     OH2      OT      -0.834000       15.9994           0
     25020 TIP3     2549     TIP3     H1       HT       0.417000       1.00800           0
     25021 TIP3     2549     TIP3     H2       HT       0.417000       1.00800           0
     25022 TIP3     2550     TIP3     OH2      OT      -0.834000       15.9994           0
     25023 TIP3     2550     TIP3     H1       HT       0.417000       1.00800           0
     25024 TIP3     2550     TIP3     H2       HT       0.417000       1.00800           0
     25025 TIP3     2551     TIP3     OH2      OT      -0.834000       15.9994           0
     25026 TIP3     2551     TIP3     H1       HT       0.417000       1.00800           0
     25027 TIP3     2551     TIP3     H2       HT       0.417000       1.00800           0
     25028 TIP3     2552     TIP3     OH2      OT      -0.834000       15.9994           0
     25029 TIP3     2552     TIP3     H1       HT       0.417000       1.00800           0
     25030 TIP3     2552     TIP3     H2       HT       0.417000       1.00800           0
     25031 TIP3     2553     TIP3     OH2      OT      -0.834000       15.9994           0
     25032 TIP3     2553     TIP3     H1       HT       0.417000       1.00800           0
     25033 TIP3     2553     TIP3     H2       HT       0.417000       1.00800           0
     25034 TIP3     2554     TIP3     OH2      OT      -0.834000       15.9994           0
     25035 TIP3     2554     TIP3     H1       HT       0.417000       1.00800           0
     25036 TIP3     2554     TIP3     H2       HT       0.417000       1.00800           0
     25037 TIP3     2555     TIP3     OH2      OT      -0.834000       15.9994           0
     25038 TIP3     2555     TIP3     H1       HT       0.417000       1.00800           0
     25039 TIP3     2555     TIP3     H2       HT       0.417000       1.00800           0
     25040 TIP3     2556     TIP3     OH2      OT      -0.834000       15.9994           0
     25041 TIP3     2556     TIP3     H1       HT       0.417000       1.00800           0
     25042 TIP3     2556     TIP3     H2       HT       0.417000       1.00800           0
     25043 TIP3     2557     TIP3     OH2      OT      -0.834000       15.9994           0
     25044 TIP3     2557     TIP3     H1       HT       0.417000       1.00800           0
     25045 TIP3     2557     TIP3     H2       HT       0.417000       1.00800           0
     25046 TIP3     2558     TIP3     OH2      OT      -0.834000       15.9994           0
     25047 TIP3     2558     TIP3     H1       HT       0.417000       1.00800           0
     25048 TIP3     2558     TIP3     H2       HT       0.417000       1.00800           0
     25049 TIP3     2559     TIP3     OH2      OT      -0.834000       15.9994           0
     25050 TIP3     2559     TIP3     H1       HT       0.417000       1.00800           0
     25051 TIP3     2559     TIP3     H2       HT       0.417000       1.00800           0
     25052 TIP3     2560     TIP3     OH2      OT      -0.834000       15.9994           0
     25053 TIP3     2560     TIP3     H1       HT       0.417000       1.00800           0
     25054 TIP3     2560     TIP3     H2       HT       0.417000       1.00800           0
     25055 TIP3     2561     TIP3     OH2      OT      -0.834000       15.9994           0
     25056 TIP3     2561     TIP3     H1       HT       0.417000       1.00800           0
     25057 TIP3     2561     TIP3     H2       HT       0.417000       1.00800           0
     25058 TIP3     2562     TIP3     OH2      OT      -0.834000       15.9994           0
     25059 TIP3     2562     TIP3     H1       HT       0.417000       1.00800           0
     25060 TIP3     2562     TIP3     H2       HT       0.417000       1.00800           0
     25061 TIP3     2563     TIP3     OH2      OT      -0.834000       15.9994           0
     25062 TIP3     2563     TIP3     H1       HT       0.417000       1.00800           0
     25063 TIP3     2563     TIP3     H2       HT       0.417000       1.00800           0
     25064 TIP3     2564     TIP3     OH2      OT      -0.834000       15.9994           0
     25065 TIP3     2564     TIP3     H1       HT       0.417000       1.00800           0
     25066 TIP3     2564     TIP3     H2       HT       0.417000       1.00800           0
     25067 TIP3     2565     TIP3     OH2      OT      -0.834000       15.9994           0
     25068 TIP3     2565     TIP3     H1       HT       0.417000       1.00800           0
     25069 TIP3     2565     TIP3     H2       HT       0.417000       1.00800           0
     25070 TIP3     2566     TIP3     OH2      OT      -0.834000       15.9994           0
     25071 TIP3     2566     TIP3     H1       HT       0.417000       1.00800           0
     25072 TIP3     2566     TIP3     H2       HT       0.417000       1.00800           0
     25073 TIP3     2567     TIP3     OH2      OT      -0.834000       15.9994           0
     25074 TIP3     2567     TIP3     H1       HT       0.417000       1.00800           0
     25075 TIP3     2567     TIP3     H2       HT       0.417000       1.00800           0
     25076 TIP3     2568     TIP3     OH2      OT      -0.834000       15.9994           0
     25077 TIP3     2568     TIP3     H1       HT       0.417000       1.00800           0
     25078 TIP3     2568     TIP3     H2       HT       0.417000       1.00800           0
     25079 TIP3     2569     TIP3     OH2      OT      -0.834000       15.9994           0
     25080 TIP3     2569     TIP3     H1       HT       0.417000       1.00800           0
     25081 TIP3     2569     TIP3     H2       HT       0.417000       1.00800           0
     25082 TIP3     2570     TIP3     OH2      OT      -0.834000       15.9994           0
     25083 TIP3     2570     TIP3     H1       HT       0.417000       1.00800           0
     25084 TIP3     2570     TIP3     H2       HT       0.417000       1.00800           0
     25085 TIP3     2571     TIP3     OH2      OT      -0.834000       15.9994           0
     25086 TIP3     2571     TIP3     H1       HT       0.417000       1.00800           0
     25087 TIP3     2571     TIP3     H2       HT       0.417000       1.00800           0
     25088 TIP3     2572     TIP3     OH2      OT      -0.834000       15.9994           0
     25089 TIP3     2572     TIP3     H1       HT       0.417000       1.00800           0
     25090 TIP3     2572     TIP3     H2       HT       0.417000       1.00800           0
     25091 TIP3     2573     TIP3     OH2      OT      -0.834000       15.9994           0
     25092 TIP3     2573     TIP3     H1       HT       0.417000       1.00800           0
     25093 TIP3     2573     TIP3     H2       HT       0.417000       1.00800           0
     25094 TIP3     2574     TIP3     OH2      OT      -0.834000       15.9994           0
     25095 TIP3     2574     TIP3     H1       HT       0.417000       1.00800           0
     25096 TIP3     2574     TIP3     H2       HT       0.417000       1.00800           0
     25097 TIP3     2575     TIP3     OH2      OT      -0.834000       15.9994           0
     25098 TIP3     2575     TIP3     H1       HT       0.417000       1.00800           0
     25099 TIP3     2575     TIP3     H2       HT       0.417000       1.00800           0
     25100 TIP3     2576     TIP3     OH2      OT      -0.834000       15.9994           0
     25101 TIP3     2576     TIP3     H1       HT       0.417000       1.00800           0
     25102 TIP3     2576     TIP3     H2       HT       0.417000       1.00800           0
     25103 TIP3     2577     TIP3     OH2      OT      -0.834000       15.9994           0
     25104 TIP3     2577     TIP3     H1       HT       0.417000       1.00800           0
     25105 TIP3     2577     TIP3     H2       HT       0.417000       1.00800           0
     25106 TIP3     2578     TIP3     OH2      OT      -0.834000       15.9994           0
     25107 TIP3     2578     TIP3     H1       HT       0.417000       1.00800           0
     25108 TIP3     2578     TIP3     H2       HT       0.417000       1.00800           0
     25109 TIP3     2579     TIP3     OH2      OT      -0.834000       15.9994           0
     25110 TIP3     2579     TIP3     H1       HT       0.417000       1.00800           0
     25111 TIP3     2579     TIP3     H2       HT       0.417000       1.00800           0
     25112 TIP3     2580     TIP3     OH2      OT      -0.834000       15.9994           0
     25113 TIP3     2580     TIP3     H1       HT       0.417000       1.00800           0
     25114 TIP3     2580     TIP3     H2       HT       0.417000       1.00800           0
     25115 TIP3     2581     TIP3     OH2      OT      -0.834000       15.9994           0
     25116 TIP3     2581     TIP3     H1       HT       0.417000       1.00800           0
     25117 TIP3     2581     TIP3     H2       HT       0.417000       1.00800           0
     25118 TIP3     2582     TIP3     OH2      OT      -0.834000       15.9994           0
     25119 TIP3     2582     TIP3     H1       HT       0.417000       1.00800           0
     25120 TIP3     2582     TIP3     H2       HT       0.417000       1.00800           0
     25121 TIP3     2583     TIP3     OH2      OT      -0.834000       15.9994           0
     25122 TIP3     2583     TIP3     H1       HT       0.417000       1.00800           0
     25123 TIP3     2583     TIP3     H2       HT       0.417000       1.00800           0
     25124 TIP3     2584     TIP3     OH2      OT      -0.834000       15.9994           0
     25125 TIP3     2584     TIP3     H1       HT       0.417000       1.00800           0
     25126 TIP3     2584     TIP3     H2       HT       0.417000       1.00800           0
     25127 TIP3     2585     TIP3     OH2      OT      -0.834000       15.9994           0
     25128 TIP3     2585     TIP3     H1       HT       0.417000       1.00800           0
     25129 TIP3     2585     TIP3     H2       HT       0.417000       1.00800           0
     25130 TIP3     2586     TIP3     OH2      OT      -0.834000       15.9994           0
     25131 TIP3     2586     TIP3     H1       HT       0.417000       1.00800           0
     25132 TIP3     2586     TIP3     H2       HT       0.417000       1.00800           0
     25133 TIP3     2587     TIP3     OH2      OT      -0.834000       15.9994           0
     25134 TIP3     2587     TIP3     H1       HT       0.417000       1.00800           0
     25135 TIP3     2587     TIP3     H2       HT       0.417000       1.00800           0
     25136 TIP3     2588     TIP3     OH2      OT      -0.834000       15.9994           0
     25137 TIP3     2588     TIP3     H1       HT       0.417000       1.00800           0
     25138 TIP3     2588     TIP3     H2       HT       0.417000       1.00800           0
     25139 TIP3     2589     TIP3     OH2      OT      -0.834000       15.9994           0
     25140 TIP3     2589     TIP3     H1       HT       0.417000       1.00800           0
     25141 TIP3     2589     TIP3     H2       HT       0.417000       1.00800           0
     25142 TIP3     2590     TIP3     OH2      OT      -0.834000       15.9994           0
     25143 TIP3     2590     TIP3     H1       HT       0.417000       1.00800           0
     25144 TIP3     2590     TIP3     H2       HT       0.417000       1.00800           0
     25145 TIP3     2591     TIP3     OH2      OT      -0.834000       15.9994           0
     25146 TIP3     2591     TIP3     H1       HT       0.417000       1.00800           0
     25147 TIP3     2591     TIP3     H2       HT       0.417000       1.00800           0
     25148 TIP3     2592     TIP3     OH2      OT      -0.834000       15.9994           0
     25149 TIP3     2592     TIP3     H1       HT       0.417000       1.00800           0
     25150 TIP3     2592     TIP3     H2       HT       0.417000       1.00800           0
     25151 TIP3     2593     TIP3     OH2      OT      -0.834000       15.9994           0
     25152 TIP3     2593     TIP3     H1       HT       0.417000       1.00800           0
     25153 TIP3     2593     TIP3     H2       HT       0.417000       1.00800           0
     25154 TIP3     2594     TIP3     OH2      OT      -0.834000       15.9994           0
     25155 TIP3     2594     TIP3     H1       HT       0.417000       1.00800           0
     25156 TIP3     2594     TIP3     H2       HT       0.417000       1.00800           0
     25157 TIP3     2595     TIP3     OH2      OT      -0.834000       15.9994           0
     25158 TIP3     2595     TIP3     H1       HT       0.417000       1.00800           0
     25159 TIP3     2595     TIP3     H2       HT       0.417000       1.00800           0
     25160 TIP3     2596     TIP3     OH2      OT      -0.834000       15.9994           0
     25161 TIP3     2596     TIP3     H1       HT       0.417000       1.00800           0
     25162 TIP3     2596     TIP3     H2       HT       0.417000       1.00800           0
     25163 TIP3     2597     TIP3     OH2      OT      -0.834000       15.9994           0
     25164 TIP3     2597     TIP3     H1       HT       0.417000       1.00800           0
     25165 TIP3     2597     TIP3     H2       HT       0.417000       1.00800           0
     25166 TIP3     2598     TIP3     OH2      OT      -0.834000       15.9994           0
     25167 TIP3     2598     TIP3     H1       HT       0.417000       1.00800           0
     25168 TIP3     2598     TIP3     H2       HT       0.417000       1.00800           0
     25169 TIP3     2599     TIP3     OH2      OT      -0.834000       15.9994           0
     25170 TIP3     2599     TIP3     H1       HT       0.417000       1.00800           0
     25171 TIP3     2599     TIP3     H2       HT       0.417000       1.00800           0
     25172 TIP3     2600     TIP3     OH2      OT      -0.834000       15.9994           0
     25173 TIP3     2600     TIP3     H1       HT       0.417000       1.00800           0
     25174 TIP3     2600     TIP3     H2       HT       0.417000       1.00800           0
     25175 TIP3     2601     TIP3     OH2      OT      -0.834000       15.9994           0
     25176 TIP3     2601     TIP3     H1       HT       0.417000       1.00800           0
     25177 TIP3     2601     TIP3     H2       HT       0.417000       1.00800           0
     25178 TIP3     2602     TIP3     OH2      OT      -0.834000       15.9994           0
     25179 TIP3     2602     TIP3     H1       HT       0.417000       1.00800           0
     25180 TIP3     2602     TIP3     H2       HT       0.417000       1.00800           0
     25181 TIP3     2603     TIP3     OH2      OT      -0.834000       15.9994           0
     25182 TIP3     2603     TIP3     H1       HT       0.417000       1.00800           0
     25183 TIP3     2603     TIP3     H2       HT       0.417000       1.00800           0
     25184 TIP3     2604     TIP3     OH2      OT      -0.834000       15.9994           0
     25185 TIP3     2604     TIP3     H1       HT       0.417000       1.00800           0
     25186 TIP3     2604     TIP3     H2       HT       0.417000       1.00800           0
     25187 TIP3     2605     TIP3     OH2      OT      -0.834000       15.9994           0
     25188 TIP3     2605     TIP3     H1       HT       0.417000       1.00800           0
     25189 TIP3     2605     TIP3     H2       HT       0.417000       1.00800           0
     25190 TIP3     2606     TIP3     OH2      OT      -0.834000       15.9994           0
     25191 TIP3     2606     TIP3     H1       HT       0.417000       1.00800           0
     25192 TIP3     2606     TIP3     H2       HT       0.417000       1.00800           0
     25193 TIP3     2607     TIP3     OH2      OT      -0.834000       15.9994           0
     25194 TIP3     2607     TIP3     H1       HT       0.417000       1.00800           0
     25195 TIP3     2607     TIP3     H2       HT       0.417000       1.00800           0
     25196 TIP3     2608     TIP3     OH2      OT      -0.834000       15.9994           0
     25197 TIP3     2608     TIP3     H1       HT       0.417000       1.00800           0
     25198 TIP3     2608     TIP3     H2       HT       0.417000       1.00800           0
     25199 TIP3     2609     TIP3     OH2      OT      -0.834000       15.9994           0
     25200 TIP3     2609     TIP3     H1       HT       0.417000       1.00800           0
     25201 TIP3     2609     TIP3     H2       HT       0.417000       1.00800           0
     25202 TIP3     2610     TIP3     OH2      OT      -0.834000       15.9994           0
     25203 TIP3     2610     TIP3     H1       HT       0.417000       1.00800           0
     25204 TIP3     2610     TIP3     H2       HT       0.417000       1.00800           0
     25205 TIP3     2611     TIP3     OH2      OT      -0.834000       15.9994           0
     25206 TIP3     2611     TIP3     H1       HT       0.417000       1.00800           0
     25207 TIP3     2611     TIP3     H2       HT       0.417000       1.00800           0
     25208 TIP3     2612     TIP3     OH2      OT      -0.834000       15.9994           0
     25209 TIP3     2612     TIP3     H1       HT       0.417000       1.00800           0
     25210 TIP3     2612     TIP3     H2       HT       0.417000       1.00800           0
     25211 TIP3     2613     TIP3     OH2      OT      -0.834000       15.9994           0
     25212 TIP3     2613     TIP3     H1       HT       0.417000       1.00800           0
     25213 TIP3     2613     TIP3     H2       HT       0.417000       1.00800           0
     25214 TIP3     2614     TIP3     OH2      OT      -0.834000       15.9994           0
     25215 TIP3     2614     TIP3     H1       HT       0.417000       1.00800           0
     25216 TIP3     2614     TIP3     H2       HT       0.417000       1.00800           0
     25217 TIP3     2615     TIP3     OH2      OT      -0.834000       15.9994           0
     25218 TIP3     2615     TIP3     H1       HT       0.417000       1.00800           0
     25219 TIP3     2615     TIP3     H2       HT       0.417000       1.00800           0
     25220 TIP3     2616     TIP3     OH2      OT      -0.834000       15.9994           0
     25221 TIP3     2616     TIP3     H1       HT       0.417000       1.00800           0
     25222 TIP3     2616     TIP3     H2       HT       0.417000       1.00800           0
     25223 TIP3     2617     TIP3     OH2      OT      -0.834000       15.9994           0
     25224 TIP3     2617     TIP3     H1       HT       0.417000       1.00800           0
     25225 TIP3     2617     TIP3     H2       HT       0.417000       1.00800           0
     25226 TIP3     2618     TIP3     OH2      OT      -0.834000       15.9994           0
     25227 TIP3     2618     TIP3     H1       HT       0.417000       1.00800           0
     25228 TIP3     2618     TIP3     H2       HT       0.417000       1.00800           0
     25229 TIP3     2619     TIP3     OH2      OT      -0.834000       15.9994           0
     25230 TIP3     2619     TIP3     H1       HT       0.417000       1.00800           0
     25231 TIP3     2619     TIP3     H2       HT       0.417000       1.00800           0
     25232 TIP3     2620     TIP3     OH2      OT      -0.834000       15.9994           0
     25233 TIP3     2620     TIP3     H1       HT       0.417000       1.00800           0
     25234 TIP3     2620     TIP3     H2       HT       0.417000       1.00800           0
     25235 TIP3     2621     TIP3     OH2      OT      -0.834000       15.9994           0
     25236 TIP3     2621     TIP3     H1       HT       0.417000       1.00800           0
     25237 TIP3     2621     TIP3     H2       HT       0.417000       1.00800           0
     25238 TIP3     2622     TIP3     OH2      OT      -0.834000       15.9994           0
     25239 TIP3     2622     TIP3     H1       HT       0.417000       1.00800           0
     25240 TIP3     2622     TIP3     H2       HT       0.417000       1.00800           0
     25241 TIP3     2623     TIP3     OH2      OT      -0.834000       15.9994           0
     25242 TIP3     2623     TIP3     H1       HT       0.417000       1.00800           0
     25243 TIP3     2623     TIP3     H2       HT       0.417000       1.00800           0
     25244 TIP3     2624     TIP3     OH2      OT      -0.834000       15.9994           0
     25245 TIP3     2624     TIP3     H1       HT       0.417000       1.00800           0
     25246 TIP3     2624     TIP3     H2       HT       0.417000       1.00800           0
     25247 TIP3     2625     TIP3     OH2      OT      -0.834000       15.9994           0
     25248 TIP3     2625     TIP3     H1       HT       0.417000       1.00800           0
     25249 TIP3     2625     TIP3     H2       HT       0.417000       1.00800           0
     25250 TIP3     2626     TIP3     OH2      OT      -0.834000       15.9994           0
     25251 TIP3     2626     TIP3     H1       HT       0.417000       1.00800           0
     25252 TIP3     2626     TIP3     H2       HT       0.417000       1.00800           0
     25253 TIP3     2627     TIP3     OH2      OT      -0.834000       15.9994           0
     25254 TIP3     2627     TIP3     H1       HT       0.417000       1.00800           0
     25255 TIP3     2627     TIP3     H2       HT       0.417000       1.00800           0
     25256 TIP3     2628     TIP3     OH2      OT      -0.834000       15.9994           0
     25257 TIP3     2628     TIP3     H1       HT       0.417000       1.00800           0
     25258 TIP3     2628     TIP3     H2       HT       0.417000       1.00800           0
     25259 TIP3     2629     TIP3     OH2      OT      -0.834000       15.9994           0
     25260 TIP3     2629     TIP3     H1       HT       0.417000       1.00800           0
     25261 TIP3     2629     TIP3     H2       HT       0.417000       1.00800           0
     25262 TIP3     2630     TIP3     OH2      OT      -0.834000       15.9994           0
     25263 TIP3     2630     TIP3     H1       HT       0.417000       1.00800           0
     25264 TIP3     2630     TIP3     H2       HT       0.417000       1.00800           0
     25265 TIP3     2631     TIP3     OH2      OT      -0.834000       15.9994           0
     25266 TIP3     2631     TIP3     H1       HT       0.417000       1.00800           0
     25267 TIP3     2631     TIP3     H2       HT       0.417000       1.00800           0
     25268 TIP3     2632     TIP3     OH2      OT      -0.834000       15.9994           0
     25269 TIP3     2632     TIP3     H1       HT       0.417000       1.00800           0
     25270 TIP3     2632     TIP3     H2       HT       0.417000       1.00800           0
     25271 TIP3     2633     TIP3     OH2      OT      -0.834000       15.9994           0
     25272 TIP3     2633     TIP3     H1       HT       0.417000       1.00800           0
     25273 TIP3     2633     TIP3     H2       HT       0.417000       1.00800           0
     25274 TIP3     2634     TIP3     OH2      OT      -0.834000       15.9994           0
     25275 TIP3     2634     TIP3     H1       HT       0.417000       1.00800           0
     25276 TIP3     2634     TIP3     H2       HT       0.417000       1.00800           0
     25277 TIP3     2635     TIP3     OH2      OT      -0.834000       15.9994           0
     25278 TIP3     2635     TIP3     H1       HT       0.417000       1.00800           0
     25279 TIP3     2635     TIP3     H2       HT       0.417000       1.00800           0
     25280 TIP3     2636     TIP3     OH2      OT      -0.834000       15.9994           0
     25281 TIP3     2636     TIP3     H1       HT       0.417000       1.00800           0
     25282 TIP3     2636     TIP3     H2       HT       0.417000       1.00800           0
     25283 TIP3     2637     TIP3     OH2      OT      -0.834000       15.9994           0
     25284 TIP3     2637     TIP3     H1       HT       0.417000       1.00800           0
     25285 TIP3     2637     TIP3     H2       HT       0.417000       1.00800           0
     25286 TIP3     2638     TIP3     OH2      OT      -0.834000       15.9994           0
     25287 TIP3     2638     TIP3     H1       HT       0.417000       1.00800           0
     25288 TIP3     2638     TIP3     H2       HT       0.417000       1.00800           0
     25289 TIP3     2639     TIP3     OH2      OT      -0.834000       15.9994           0
     25290 TIP3     2639     TIP3     H1       HT       0.417000       1.00800           0
     25291 TIP3     2639     TIP3     H2       HT       0.417000       1.00800           0
     25292 TIP3     2640     TIP3     OH2      OT      -0.834000       15.9994           0
     25293 TIP3     2640     TIP3     H1       HT       0.417000       1.00800           0
     25294 TIP3     2640     TIP3     H2       HT       0.417000       1.00800           0
     25295 TIP3     2641     TIP3     OH2      OT      -0.834000       15.9994           0
     25296 TIP3     2641     TIP3     H1       HT       0.417000       1.00800           0
     25297 TIP3     2641     TIP3     H2       HT       0.417000       1.00800           0
     25298 TIP3     2642     TIP3     OH2      OT      -0.834000       15.9994           0
     25299 TIP3     2642     TIP3     H1       HT       0.417000       1.00800           0
     25300 TIP3     2642     TIP3     H2       HT       0.417000       1.00800           0
     25301 TIP3     2643     TIP3     OH2      OT      -0.834000       15.9994           0
     25302 TIP3     2643     TIP3     H1       HT       0.417000       1.00800           0
     25303 TIP3     2643     TIP3     H2       HT       0.417000       1.00800           0
     25304 TIP3     2644     TIP3     OH2      OT      -0.834000       15.9994           0
     25305 TIP3     2644     TIP3     H1       HT       0.417000       1.00800           0
     25306 TIP3     2644     TIP3     H2       HT       0.417000       1.00800           0
     25307 TIP3     2645     TIP3     OH2      OT      -0.834000       15.9994           0
     25308 TIP3     2645     TIP3     H1       HT       0.417000       1.00800           0
     25309 TIP3     2645     TIP3     H2       HT       0.417000       1.00800           0
     25310 TIP3     2646     TIP3     OH2      OT      -0.834000       15.9994           0
     25311 TIP3     2646     TIP3     H1       HT       0.417000       1.00800           0
     25312 TIP3     2646     TIP3     H2       HT       0.417000       1.00800           0
     25313 TIP3     2647     TIP3     OH2      OT      -0.834000       15.9994           0
     25314 TIP3     2647     TIP3     H1       HT       0.417000       1.00800           0
     25315 TIP3     2647     TIP3     H2       HT       0.417000       1.00800           0
     25316 TIP3     2648     TIP3     OH2      OT      -0.834000       15.9994           0
     25317 TIP3     2648     TIP3     H1       HT       0.417000       1.00800           0
     25318 TIP3     2648     TIP3     H2       HT       0.417000       1.00800           0
     25319 TIP3     2649     TIP3     OH2      OT      -0.834000       15.9994           0
     25320 TIP3     2649     TIP3     H1       HT       0.417000       1.00800           0
     25321 TIP3     2649     TIP3     H2       HT       0.417000       1.00800           0
     25322 TIP3     2650     TIP3     OH2      OT      -0.834000       15.9994           0
     25323 TIP3     2650     TIP3     H1       HT       0.417000       1.00800           0
     25324 TIP3     2650     TIP3     H2       HT       0.417000       1.00800           0
     25325 TIP3     2651     TIP3     OH2      OT      -0.834000       15.9994           0
     25326 TIP3     2651     TIP3     H1       HT       0.417000       1.00800           0
     25327 TIP3     2651     TIP3     H2       HT       0.417000       1.00800           0
     25328 TIP3     2652     TIP3     OH2      OT      -0.834000       15.9994           0
     25329 TIP3     2652     TIP3     H1       HT       0.417000       1.00800           0
     25330 TIP3     2652     TIP3     H2       HT       0.417000       1.00800           0
     25331 TIP3     2653     TIP3     OH2      OT      -0.834000       15.9994           0
     25332 TIP3     2653     TIP3     H1       HT       0.417000       1.00800           0
     25333 TIP3     2653     TIP3     H2       HT       0.417000       1.00800           0
     25334 TIP3     2654     TIP3     OH2      OT      -0.834000       15.9994           0
     25335 TIP3     2654     TIP3     H1       HT       0.417000       1.00800           0
     25336 TIP3     2654     TIP3     H2       HT       0.417000       1.00800           0
     25337 TIP3     2655     TIP3     OH2      OT      -0.834000       15.9994           0
     25338 TIP3     2655     TIP3     H1       HT       0.417000       1.00800           0
     25339 TIP3     2655     TIP3     H2       HT       0.417000       1.00800           0
     25340 TIP3     2656     TIP3     OH2      OT      -0.834000       15.9994           0
     25341 TIP3     2656     TIP3     H1       HT       0.417000       1.00800           0
     25342 TIP3     2656     TIP3     H2       HT       0.417000       1.00800           0
     25343 TIP3     2657     TIP3     OH2      OT      -0.834000       15.9994           0
     25344 TIP3     2657     TIP3     H1       HT       0.417000       1.00800           0
     25345 TIP3     2657     TIP3     H2       HT       0.417000       1.00800           0
     25346 TIP3     2658     TIP3     OH2      OT      -0.834000       15.9994           0
     25347 TIP3     2658     TIP3     H1       HT       0.417000       1.00800           0
     25348 TIP3     2658     TIP3     H2       HT       0.417000       1.00800           0
     25349 TIP3     2659     TIP3     OH2      OT      -0.834000       15.9994           0
     25350 TIP3     2659     TIP3     H1       HT       0.417000       1.00800           0
     25351 TIP3     2659     TIP3     H2       HT       0.417000       1.00800           0
     25352 TIP3     2660     TIP3     OH2      OT      -0.834000       15.9994           0
     25353 TIP3     2660     TIP3     H1       HT       0.417000       1.00800           0
     25354 TIP3     2660     TIP3     H2       HT       0.417000       1.00800           0
     25355 TIP3     2661     TIP3     OH2      OT      -0.834000       15.9994           0
     25356 TIP3     2661     TIP3     H1       HT       0.417000       1.00800           0
     25357 TIP3     2661     TIP3     H2       HT       0.417000       1.00800           0
     25358 TIP3     2662     TIP3     OH2      OT      -0.834000       15.9994           0
     25359 TIP3     2662     TIP3     H1       HT       0.417000       1.00800           0
     25360 TIP3     2662     TIP3     H2       HT       0.417000       1.00800           0
     25361 TIP3     2663     TIP3     OH2      OT      -0.834000       15.9994           0
     25362 TIP3     2663     TIP3     H1       HT       0.417000       1.00800           0
     25363 TIP3     2663     TIP3     H2       HT       0.417000       1.00800           0
     25364 TIP3     2664     TIP3     OH2      OT      -0.834000       15.9994           0
     25365 TIP3     2664     TIP3     H1       HT       0.417000       1.00800           0
     25366 TIP3     2664     TIP3     H2       HT       0.417000       1.00800           0
     25367 TIP3     2665     TIP3     OH2      OT      -0.834000       15.9994           0
     25368 TIP3     2665     TIP3     H1       HT       0.417000       1.00800           0
     25369 TIP3     2665     TIP3     H2       HT       0.417000       1.00800           0
     25370 TIP3     2666     TIP3     OH2      OT      -0.834000       15.9994           0
     25371 TIP3     2666     TIP3     H1       HT       0.417000       1.00800           0
     25372 TIP3     2666     TIP3     H2       HT       0.417000       1.00800           0
     25373 TIP3     2667     TIP3     OH2      OT      -0.834000       15.9994           0
     25374 TIP3     2667     TIP3     H1       HT       0.417000       1.00800           0
     25375 TIP3     2667     TIP3     H2       HT       0.417000       1.00800           0
     25376 TIP3     2668     TIP3     OH2      OT      -0.834000       15.9994           0
     25377 TIP3     2668     TIP3     H1       HT       0.417000       1.00800           0
     25378 TIP3     2668     TIP3     H2       HT       0.417000       1.00800           0
     25379 TIP3     2669     TIP3     OH2      OT      -0.834000       15.9994           0
     25380 TIP3     2669     TIP3     H1       HT       0.417000       1.00800           0
     25381 TIP3     2669     TIP3     H2       HT       0.417000       1.00800           0
     25382 TIP3     2670     TIP3     OH2      OT      -0.834000       15.9994           0
     25383 TIP3     2670     TIP3     H1       HT       0.417000       1.00800           0
     25384 TIP3     2670     TIP3     H2       HT       0.417000       1.00800           0
     25385 TIP3     2671     TIP3     OH2      OT      -0.834000       15.9994           0
     25386 TIP3     2671     TIP3     H1       HT       0.417000       1.00800           0
     25387 TIP3     2671     TIP3     H2       HT       0.417000       1.00800           0
     25388 TIP3     2672     TIP3     OH2      OT      -0.834000       15.9994           0
     25389 TIP3     2672     TIP3     H1       HT       0.417000       1.00800           0
     25390 TIP3     2672     TIP3     H2       HT       0.417000       1.00800           0
     25391 TIP3     2673     TIP3     OH2      OT      -0.834000       15.9994           0
     25392 TIP3     2673     TIP3     H1       HT       0.417000       1.00800           0
     25393 TIP3     2673     TIP3     H2       HT       0.417000       1.00800           0
     25394 TIP3     2674     TIP3     OH2      OT      -0.834000       15.9994           0
     25395 TIP3     2674     TIP3     H1       HT       0.417000       1.00800           0
     25396 TIP3     2674     TIP3     H2       HT       0.417000       1.00800           0
     25397 TIP3     2675     TIP3     OH2      OT      -0.834000       15.9994           0
     25398 TIP3     2675     TIP3     H1       HT       0.417000       1.00800           0
     25399 TIP3     2675     TIP3     H2       HT       0.417000       1.00800           0
     25400 TIP3     2676     TIP3     OH2      OT      -0.834000       15.9994           0
     25401 TIP3     2676     TIP3     H1       HT       0.417000       1.00800           0
     25402 TIP3     2676     TIP3     H2       HT       0.417000       1.00800           0
     25403 TIP3     2677     TIP3     OH2      OT      -0.834000       15.9994           0
     25404 TIP3     2677     TIP3     H1       HT       0.417000       1.00800           0
     25405 TIP3     2677     TIP3     H2       HT       0.417000       1.00800           0
     25406 TIP3     2678     TIP3     OH2      OT      -0.834000       15.9994           0
     25407 TIP3     2678     TIP3     H1       HT       0.417000       1.00800           0
     25408 TIP3     2678     TIP3     H2       HT       0.417000       1.00800           0
     25409 TIP3     2679     TIP3     OH2      OT      -0.834000       15.9994           0
     25410 TIP3     2679     TIP3     H1       HT       0.417000       1.00800           0
     25411 TIP3     2679     TIP3     H2       HT       0.417000       1.00800           0
     25412 TIP3     2680     TIP3     OH2      OT      -0.834000       15.9994           0
     25413 TIP3     2680     TIP3     H1       HT       0.417000       1.00800           0
     25414 TIP3     2680     TIP3     H2       HT       0.417000       1.00800           0
     25415 TIP3     2681     TIP3     OH2      OT      -0.834000       15.9994           0
     25416 TIP3     2681     TIP3     H1       HT       0.417000       1.00800           0
     25417 TIP3     2681     TIP3     H2       HT       0.417000       1.00800           0
     25418 TIP3     2682     TIP3     OH2      OT      -0.834000       15.9994           0
     25419 TIP3     2682     TIP3     H1       HT       0.417000       1.00800           0
     25420 TIP3     2682     TIP3     H2       HT       0.417000       1.00800           0
     25421 TIP3     2683     TIP3     OH2      OT      -0.834000       15.9994           0
     25422 TIP3     2683     TIP3     H1       HT       0.417000       1.00800           0
     25423 TIP3     2683     TIP3     H2       HT       0.417000       1.00800           0
     25424 TIP3     2684     TIP3     OH2      OT      -0.834000       15.9994           0
     25425 TIP3     2684     TIP3     H1       HT       0.417000       1.00800           0
     25426 TIP3     2684     TIP3     H2       HT       0.417000       1.00800           0
     25427 TIP3     2685     TIP3     OH2      OT      -0.834000       15.9994           0
     25428 TIP3     2685     TIP3     H1       HT       0.417000       1.00800           0
     25429 TIP3     2685     TIP3     H2       HT       0.417000       1.00800           0
     25430 TIP3     2686     TIP3     OH2      OT      -0.834000       15.9994           0
     25431 TIP3     2686     TIP3     H1       HT       0.417000       1.00800           0
     25432 TIP3     2686     TIP3     H2       HT       0.417000       1.00800           0
     25433 TIP3     2687     TIP3     OH2      OT      -0.834000       15.9994           0
     25434 TIP3     2687     TIP3     H1       HT       0.417000       1.00800           0
     25435 TIP3     2687     TIP3     H2       HT       0.417000       1.00800           0
     25436 TIP3     2688     TIP3     OH2      OT      -0.834000       15.9994           0
     25437 TIP3     2688     TIP3     H1       HT       0.417000       1.00800           0
     25438 TIP3     2688     TIP3     H2       HT       0.417000       1.00800           0
     25439 TIP3     2689     TIP3     OH2      OT      -0.834000       15.9994           0
     25440 TIP3     2689     TIP3     H1       HT       0.417000       1.00800           0
     25441 TIP3     2689     TIP3     H2       HT       0.417000       1.00800           0
     25442 TIP3     2690     TIP3     OH2      OT      -0.834000       15.9994           0
     25443 TIP3     2690     TIP3     H1       HT       0.417000       1.00800           0
     25444 TIP3     2690     TIP3     H2       HT       0.417000       1.00800           0
     25445 TIP3     2691     TIP3     OH2      OT      -0.834000       15.9994           0
     25446 TIP3     2691     TIP3     H1       HT       0.417000       1.00800           0
     25447 TIP3     2691     TIP3     H2       HT       0.417000       1.00800           0
     25448 TIP3     2692     TIP3     OH2      OT      -0.834000       15.9994           0
     25449 TIP3     2692     TIP3     H1       HT       0.417000       1.00800           0
     25450 TIP3     2692     TIP3     H2       HT       0.417000       1.00800           0
     25451 TIP3     2693     TIP3     OH2      OT      -0.834000       15.9994           0
     25452 TIP3     2693     TIP3     H1       HT       0.417000       1.00800           0
     25453 TIP3     2693     TIP3     H2       HT       0.417000       1.00800           0
     25454 TIP3     2694     TIP3     OH2      OT      -0.834000       15.9994           0
     25455 TIP3     2694     TIP3     H1       HT       0.417000       1.00800           0
     25456 TIP3     2694     TIP3     H2       HT       0.417000       1.00800           0
     25457 TIP3     2695     TIP3     OH2      OT      -0.834000       15.9994           0
     25458 TIP3     2695     TIP3     H1       HT       0.417000       1.00800           0
     25459 TIP3     2695     TIP3     H2       HT       0.417000       1.00800           0
     25460 TIP3     2696     TIP3     OH2      OT      -0.834000       15.9994           0
     25461 TIP3     2696     TIP3     H1       HT       0.417000       1.00800           0
     25462 TIP3     2696     TIP3     H2       HT       0.417000       1.00800           0
     25463 TIP3     2697     TIP3     OH2      OT      -0.834000       15.9994           0
     25464 TIP3     2697     TIP3     H1       HT       0.417000       1.00800           0
     25465 TIP3     2697     TIP3     H2       HT       0.417000       1.00800           0
     25466 TIP3     2698     TIP3     OH2      OT      -0.834000       15.9994           0
     25467 TIP3     2698     TIP3     H1       HT       0.417000       1.00800           0
     25468 TIP3     2698     TIP3     H2       HT       0.417000       1.00800           0
     25469 TIP3     2699     TIP3     OH2      OT      -0.834000       15.9994           0
     25470 TIP3     2699     TIP3     H1       HT       0.417000       1.00800           0
     25471 TIP3     2699     TIP3     H2       HT       0.417000       1.00800           0
     25472 TIP3     2700     TIP3     OH2      OT      -0.834000       15.9994           0
     25473 TIP3     2700     TIP3     H1       HT       0.417000       1.00800           0
     25474 TIP3     2700     TIP3     H2       HT       0.417000       1.00800           0
     25475 TIP3     2701     TIP3     OH2      OT      -0.834000       15.9994           0
     25476 TIP3     2701     TIP3     H1       HT       0.417000       1.00800           0
     25477 TIP3     2701     TIP3     H2       HT       0.417000       1.00800           0
     25478 TIP3     2702     TIP3     OH2      OT      -0.834000       15.9994           0
     25479 TIP3     2702     TIP3     H1       HT       0.417000       1.00800           0
     25480 TIP3     2702     TIP3     H2       HT       0.417000       1.00800           0
     25481 TIP3     2703     TIP3     OH2      OT      -0.834000       15.9994           0
     25482 TIP3     2703     TIP3     H1       HT       0.417000       1.00800           0
     25483 TIP3     2703     TIP3     H2       HT       0.417000       1.00800           0
     25484 TIP3     2704     TIP3     OH2      OT      -0.834000       15.9994           0
     25485 TIP3     2704     TIP3     H1       HT       0.417000       1.00800           0
     25486 TIP3     2704     TIP3     H2       HT       0.417000       1.00800           0
     25487 TIP3     2705     TIP3     OH2      OT      -0.834000       15.9994           0
     25488 TIP3     2705     TIP3     H1       HT       0.417000       1.00800           0
     25489 TIP3     2705     TIP3     H2       HT       0.417000       1.00800           0
     25490 TIP3     2706     TIP3     OH2      OT      -0.834000       15.9994           0
     25491 TIP3     2706     TIP3     H1       HT       0.417000       1.00800           0
     25492 TIP3     2706     TIP3     H2       HT       0.417000       1.00800           0
     25493 TIP3     2707     TIP3     OH2      OT      -0.834000       15.9994           0
     25494 TIP3     2707     TIP3     H1       HT       0.417000       1.00800           0
     25495 TIP3     2707     TIP3     H2       HT       0.417000       1.00800           0
     25496 TIP3     2708     TIP3     OH2      OT      -0.834000       15.9994           0
     25497 TIP3     2708     TIP3     H1       HT       0.417000       1.00800           0
     25498 TIP3     2708     TIP3     H2       HT       0.417000       1.00800           0
     25499 TIP3     2709     TIP3     OH2      OT      -0.834000       15.9994           0
     25500 TIP3     2709     TIP3     H1       HT       0.417000       1.00800           0
     25501 TIP3     2709     TIP3     H2       HT       0.417000       1.00800           0
     25502 TIP3     2710     TIP3     OH2      OT      -0.834000       15.9994           0
     25503 TIP3     2710     TIP3     H1       HT       0.417000       1.00800           0
     25504 TIP3     2710     TIP3     H2       HT       0.417000       1.00800           0
     25505 TIP3     2711     TIP3     OH2      OT      -0.834000       15.9994           0
     25506 TIP3     2711     TIP3     H1       HT       0.417000       1.00800           0
     25507 TIP3     2711     TIP3     H2       HT       0.417000       1.00800           0
     25508 TIP3     2712     TIP3     OH2      OT      -0.834000       15.9994           0
     25509 TIP3     2712     TIP3     H1       HT       0.417000       1.00800           0
     25510 TIP3     2712     TIP3     H2       HT       0.417000       1.00800           0
     25511 TIP3     2713     TIP3     OH2      OT      -0.834000       15.9994           0
     25512 TIP3     2713     TIP3     H1       HT       0.417000       1.00800           0
     25513 TIP3     2713     TIP3     H2       HT       0.417000       1.00800           0
     25514 TIP3     2714     TIP3     OH2      OT      -0.834000       15.9994           0
     25515 TIP3     2714     TIP3     H1       HT       0.417000       1.00800           0
     25516 TIP3     2714     TIP3     H2       HT       0.417000       1.00800           0
     25517 TIP3     2715     TIP3     OH2      OT      -0.834000       15.9994           0
     25518 TIP3     2715     TIP3     H1       HT       0.417000       1.00800           0
     25519 TIP3     2715     TIP3     H2       HT       0.417000       1.00800           0
     25520 TIP3     2716     TIP3     OH2      OT      -0.834000       15.9994           0
     25521 TIP3     2716     TIP3     H1       HT       0.417000       1.00800           0
     25522 TIP3     2716     TIP3     H2       HT       0.417000       1.00800           0
     25523 TIP3     2717     TIP3     OH2      OT      -0.834000       15.9994           0
     25524 TIP3     2717     TIP3     H1       HT       0.417000       1.00800           0
     25525 TIP3     2717     TIP3     H2       HT       0.417000       1.00800           0
     25526 TIP3     2718     TIP3     OH2      OT      -0.834000       15.9994           0
     25527 TIP3     2718     TIP3     H1       HT       0.417000       1.00800           0
     25528 TIP3     2718     TIP3     H2       HT       0.417000       1.00800           0
     25529 TIP3     2719     TIP3     OH2      OT      -0.834000       15.9994           0
     25530 TIP3     2719     TIP3     H1       HT       0.417000       1.00800           0
     25531 TIP3     2719     TIP3     H2       HT       0.417000       1.00800           0
     25532 TIP3     2720     TIP3     OH2      OT      -0.834000       15.9994           0
     25533 TIP3     2720     TIP3     H1       HT       0.417000       1.00800           0
     25534 TIP3     2720     TIP3     H2       HT       0.417000       1.00800           0
     25535 TIP3     2721     TIP3     OH2      OT      -0.834000       15.9994           0
     25536 TIP3     2721     TIP3     H1       HT       0.417000       1.00800           0
     25537 TIP3     2721     TIP3     H2       HT       0.417000       1.00800           0
     25538 TIP3     2722     TIP3     OH2      OT      -0.834000       15.9994           0
     25539 TIP3     2722     TIP3     H1       HT       0.417000       1.00800           0
     25540 TIP3     2722     TIP3     H2       HT       0.417000       1.00800           0
     25541 TIP3     2723     TIP3     OH2      OT      -0.834000       15.9994           0
     25542 TIP3     2723     TIP3     H1       HT       0.417000       1.00800           0
     25543 TIP3     2723     TIP3     H2       HT       0.417000       1.00800           0
     25544 TIP3     2724     TIP3     OH2      OT      -0.834000       15.9994           0
     25545 TIP3     2724     TIP3     H1       HT       0.417000       1.00800           0
     25546 TIP3     2724     TIP3     H2       HT       0.417000       1.00800           0
     25547 TIP3     2725     TIP3     OH2      OT      -0.834000       15.9994           0
     25548 TIP3     2725     TIP3     H1       HT       0.417000       1.00800           0
     25549 TIP3     2725     TIP3     H2       HT       0.417000       1.00800           0
     25550 TIP3     2726     TIP3     OH2      OT      -0.834000       15.9994           0
     25551 TIP3     2726     TIP3     H1       HT       0.417000       1.00800           0
     25552 TIP3     2726     TIP3     H2       HT       0.417000       1.00800           0
     25553 TIP3     2727     TIP3     OH2      OT      -0.834000       15.9994           0
     25554 TIP3     2727     TIP3     H1       HT       0.417000       1.00800           0
     25555 TIP3     2727     TIP3     H2       HT       0.417000       1.00800           0
     25556 TIP3     2728     TIP3     OH2      OT      -0.834000       15.9994           0
     25557 TIP3     2728     TIP3     H1       HT       0.417000       1.00800           0
     25558 TIP3     2728     TIP3     H2       HT       0.417000       1.00800           0
     25559 TIP3     2729     TIP3     OH2      OT      -0.834000       15.9994           0
     25560 TIP3     2729     TIP3     H1       HT       0.417000       1.00800           0
     25561 TIP3     2729     TIP3     H2       HT       0.417000       1.00800           0
     25562 TIP3     2730     TIP3     OH2      OT      -0.834000       15.9994           0
     25563 TIP3     2730     TIP3     H1       HT       0.417000       1.00800           0
     25564 TIP3     2730     TIP3     H2       HT       0.417000       1.00800           0
     25565 TIP3     2731     TIP3     OH2      OT      -0.834000       15.9994           0
     25566 TIP3     2731     TIP3     H1       HT       0.417000       1.00800           0
     25567 TIP3     2731     TIP3     H2       HT       0.417000       1.00800           0
     25568 TIP3     2732     TIP3     OH2      OT      -0.834000       15.9994           0
     25569 TIP3     2732     TIP3     H1       HT       0.417000       1.00800           0
     25570 TIP3     2732     TIP3     H2       HT       0.417000       1.00800           0
     25571 TIP3     2733     TIP3     OH2      OT      -0.834000       15.9994           0
     25572 TIP3     2733     TIP3     H1       HT       0.417000       1.00800           0
     25573 TIP3     2733     TIP3     H2       HT       0.417000       1.00800           0
     25574 TIP3     2734     TIP3     OH2      OT      -0.834000       15.9994           0
     25575 TIP3     2734     TIP3     H1       HT       0.417000       1.00800           0
     25576 TIP3     2734     TIP3     H2       HT       0.417000       1.00800           0
     25577 TIP3     2735     TIP3     OH2      OT      -0.834000       15.9994           0
     25578 TIP3     2735     TIP3     H1       HT       0.417000       1.00800           0
     25579 TIP3     2735     TIP3     H2       HT       0.417000       1.00800           0
     25580 TIP3     2736     TIP3     OH2      OT      -0.834000       15.9994           0
     25581 TIP3     2736     TIP3     H1       HT       0.417000       1.00800           0
     25582 TIP3     2736     TIP3     H2       HT       0.417000       1.00800           0
     25583 TIP3     2737     TIP3     OH2      OT      -0.834000       15.9994           0
     25584 TIP3     2737     TIP3     H1       HT       0.417000       1.00800           0
     25585 TIP3     2737     TIP3     H2       HT       0.417000       1.00800           0
     25586 TIP3     2738     TIP3     OH2      OT      -0.834000       15.9994           0
     25587 TIP3     2738     TIP3     H1       HT       0.417000       1.00800           0
     25588 TIP3     2738     TIP3     H2       HT       0.417000       1.00800           0
     25589 TIP3     2739     TIP3     OH2      OT      -0.834000       15.9994           0
     25590 TIP3     2739     TIP3     H1       HT       0.417000       1.00800           0
     25591 TIP3     2739     TIP3     H2       HT       0.417000       1.00800           0
     25592 TIP3     2740     TIP3     OH2      OT      -0.834000       15.9994           0
     25593 TIP3     2740     TIP3     H1       HT       0.417000       1.00800           0
     25594 TIP3     2740     TIP3     H2       HT       0.417000       1.00800           0
     25595 TIP3     2741     TIP3     OH2      OT      -0.834000       15.9994           0
     25596 TIP3     2741     TIP3     H1       HT       0.417000       1.00800           0
     25597 TIP3     2741     TIP3     H2       HT       0.417000       1.00800           0
     25598 TIP3     2742     TIP3     OH2      OT      -0.834000       15.9994           0
     25599 TIP3     2742     TIP3     H1       HT       0.417000       1.00800           0
     25600 TIP3     2742     TIP3     H2       HT       0.417000       1.00800           0
     25601 TIP3     2743     TIP3     OH2      OT      -0.834000       15.9994           0
     25602 TIP3     2743     TIP3     H1       HT       0.417000       1.00800           0
     25603 TIP3     2743     TIP3     H2       HT       0.417000       1.00800           0
     25604 TIP3     2744     TIP3     OH2      OT      -0.834000       15.9994           0
     25605 TIP3     2744     TIP3     H1       HT       0.417000       1.00800           0
     25606 TIP3     2744     TIP3     H2       HT       0.417000       1.00800           0
     25607 TIP3     2745     TIP3     OH2      OT      -0.834000       15.9994           0
     25608 TIP3     2745     TIP3     H1       HT       0.417000       1.00800           0
     25609 TIP3     2745     TIP3     H2       HT       0.417000       1.00800           0
     25610 TIP3     2746     TIP3     OH2      OT      -0.834000       15.9994           0
     25611 TIP3     2746     TIP3     H1       HT       0.417000       1.00800           0
     25612 TIP3     2746     TIP3     H2       HT       0.417000       1.00800           0
     25613 TIP3     2747     TIP3     OH2      OT      -0.834000       15.9994           0
     25614 TIP3     2747     TIP3     H1       HT       0.417000       1.00800           0
     25615 TIP3     2747     TIP3     H2       HT       0.417000       1.00800           0
     25616 TIP3     2748     TIP3     OH2      OT      -0.834000       15.9994           0
     25617 TIP3     2748     TIP3     H1       HT       0.417000       1.00800           0
     25618 TIP3     2748     TIP3     H2       HT       0.417000       1.00800           0
     25619 TIP3     2749     TIP3     OH2      OT      -0.834000       15.9994           0
     25620 TIP3     2749     TIP3     H1       HT       0.417000       1.00800           0
     25621 TIP3     2749     TIP3     H2       HT       0.417000       1.00800           0
     25622 TIP3     2750     TIP3     OH2      OT      -0.834000       15.9994           0
     25623 TIP3     2750     TIP3     H1       HT       0.417000       1.00800           0
     25624 TIP3     2750     TIP3     H2       HT       0.417000       1.00800           0
     25625 TIP3     2751     TIP3     OH2      OT      -0.834000       15.9994           0
     25626 TIP3     2751     TIP3     H1       HT       0.417000       1.00800           0
     25627 TIP3     2751     TIP3     H2       HT       0.417000       1.00800           0
     25628 TIP3     2752     TIP3     OH2      OT      -0.834000       15.9994           0
     25629 TIP3     2752     TIP3     H1       HT       0.417000       1.00800           0
     25630 TIP3     2752     TIP3     H2       HT       0.417000       1.00800           0
     25631 TIP3     2753     TIP3     OH2      OT      -0.834000       15.9994           0
     25632 TIP3     2753     TIP3     H1       HT       0.417000       1.00800           0
     25633 TIP3     2753     TIP3     H2       HT       0.417000       1.00800           0
     25634 TIP3     2754     TIP3     OH2      OT      -0.834000       15.9994           0
     25635 TIP3     2754     TIP3     H1       HT       0.417000       1.00800           0
     25636 TIP3     2754     TIP3     H2       HT       0.417000       1.00800           0
     25637 TIP3     2755     TIP3     OH2      OT      -0.834000       15.9994           0
     25638 TIP3     2755     TIP3     H1       HT       0.417000       1.00800           0
     25639 TIP3     2755     TIP3     H2       HT       0.417000       1.00800           0
     25640 TIP3     2756     TIP3     OH2      OT      -0.834000       15.9994           0
     25641 TIP3     2756     TIP3     H1       HT       0.417000       1.00800           0
     25642 TIP3     2756     TIP3     H2       HT       0.417000       1.00800           0
     25643 TIP3     2757     TIP3     OH2      OT      -0.834000       15.9994           0
     25644 TIP3     2757     TIP3     H1       HT       0.417000       1.00800           0
     25645 TIP3     2757     TIP3     H2       HT       0.417000       1.00800           0
     25646 TIP3     2758     TIP3     OH2      OT      -0.834000       15.9994           0
     25647 TIP3     2758     TIP3     H1       HT       0.417000       1.00800           0
     25648 TIP3     2758     TIP3     H2       HT       0.417000       1.00800           0
     25649 TIP3     2759     TIP3     OH2      OT      -0.834000       15.9994           0
     25650 TIP3     2759     TIP3     H1       HT       0.417000       1.00800           0
     25651 TIP3     2759     TIP3     H2       HT       0.417000       1.00800           0
     25652 TIP3     2760     TIP3     OH2      OT      -0.834000       15.9994           0
     25653 TIP3     2760     TIP3     H1       HT       0.417000       1.00800           0
     25654 TIP3     2760     TIP3     H2       HT       0.417000       1.00800           0
     25655 TIP3     2761     TIP3     OH2      OT      -0.834000       15.9994           0
     25656 TIP3     2761     TIP3     H1       HT       0.417000       1.00800           0
     25657 TIP3     2761     TIP3     H2       HT       0.417000       1.00800           0
     25658 TIP3     2762     TIP3     OH2      OT      -0.834000       15.9994           0
     25659 TIP3     2762     TIP3     H1       HT       0.417000       1.00800           0
     25660 TIP3     2762     TIP3     H2       HT       0.417000       1.00800           0
     25661 TIP3     2763     TIP3     OH2      OT      -0.834000       15.9994           0
     25662 TIP3     2763     TIP3     H1       HT       0.417000       1.00800           0
     25663 TIP3     2763     TIP3     H2       HT       0.417000       1.00800           0
     25664 TIP3     2764     TIP3     OH2      OT      -0.834000       15.9994           0
     25665 TIP3     2764     TIP3     H1       HT       0.417000       1.00800           0
     25666 TIP3     2764     TIP3     H2       HT       0.417000       1.00800           0
     25667 TIP3     2765     TIP3     OH2      OT      -0.834000       15.9994           0
     25668 TIP3     2765     TIP3     H1       HT       0.417000       1.00800           0
     25669 TIP3     2765     TIP3     H2       HT       0.417000       1.00800           0
     25670 TIP3     2766     TIP3     OH2      OT      -0.834000       15.9994           0
     25671 TIP3     2766     TIP3     H1       HT       0.417000       1.00800           0
     25672 TIP3     2766     TIP3     H2       HT       0.417000       1.00800           0
     25673 TIP3     2767     TIP3     OH2      OT      -0.834000       15.9994           0
     25674 TIP3     2767     TIP3     H1       HT       0.417000       1.00800           0
     25675 TIP3     2767     TIP3     H2       HT       0.417000       1.00800           0
     25676 TIP3     2768     TIP3     OH2      OT      -0.834000       15.9994           0
     25677 TIP3     2768     TIP3     H1       HT       0.417000       1.00800           0
     25678 TIP3     2768     TIP3     H2       HT       0.417000       1.00800           0
     25679 TIP3     2769     TIP3     OH2      OT      -0.834000       15.9994           0
     25680 TIP3     2769     TIP3     H1       HT       0.417000       1.00800           0
     25681 TIP3     2769     TIP3     H2       HT       0.417000       1.00800           0
     25682 TIP3     2770     TIP3     OH2      OT      -0.834000       15.9994           0
     25683 TIP3     2770     TIP3     H1       HT       0.417000       1.00800           0
     25684 TIP3     2770     TIP3     H2       HT       0.417000       1.00800           0
     25685 TIP3     2771     TIP3     OH2      OT      -0.834000       15.9994           0
     25686 TIP3     2771     TIP3     H1       HT       0.417000       1.00800           0
     25687 TIP3     2771     TIP3     H2       HT       0.417000       1.00800           0
     25688 TIP3     2772     TIP3     OH2      OT      -0.834000       15.9994           0
     25689 TIP3     2772     TIP3     H1       HT       0.417000       1.00800           0
     25690 TIP3     2772     TIP3     H2       HT       0.417000       1.00800           0
     25691 TIP3     2773     TIP3     OH2      OT      -0.834000       15.9994           0
     25692 TIP3     2773     TIP3     H1       HT       0.417000       1.00800           0
     25693 TIP3     2773     TIP3     H2       HT       0.417000       1.00800           0
     25694 TIP3     2774     TIP3     OH2      OT      -0.834000       15.9994           0
     25695 TIP3     2774     TIP3     H1       HT       0.417000       1.00800           0
     25696 TIP3     2774     TIP3     H2       HT       0.417000       1.00800           0
     25697 TIP3     2775     TIP3     OH2      OT      -0.834000       15.9994           0
     25698 TIP3     2775     TIP3     H1       HT       0.417000       1.00800           0
     25699 TIP3     2775     TIP3     H2       HT       0.417000       1.00800           0
     25700 TIP3     2776     TIP3     OH2      OT      -0.834000       15.9994           0
     25701 TIP3     2776     TIP3     H1       HT       0.417000       1.00800           0
     25702 TIP3     2776     TIP3     H2       HT       0.417000       1.00800           0
     25703 TIP3     2777     TIP3     OH2      OT      -0.834000       15.9994           0
     25704 TIP3     2777     TIP3     H1       HT       0.417000       1.00800           0
     25705 TIP3     2777     TIP3     H2       HT       0.417000       1.00800           0
     25706 TIP3     2778     TIP3     OH2      OT      -0.834000       15.9994           0
     25707 TIP3     2778     TIP3     H1       HT       0.417000       1.00800           0
     25708 TIP3     2778     TIP3     H2       HT       0.417000       1.00800           0
     25709 TIP3     2779     TIP3     OH2      OT      -0.834000       15.9994           0
     25710 TIP3     2779     TIP3     H1       HT       0.417000       1.00800           0
     25711 TIP3     2779     TIP3     H2       HT       0.417000       1.00800           0
     25712 TIP3     2780     TIP3     OH2      OT      -0.834000       15.9994           0
     25713 TIP3     2780     TIP3     H1       HT       0.417000       1.00800           0
     25714 TIP3     2780     TIP3     H2       HT       0.417000       1.00800           0
     25715 TIP3     2781     TIP3     OH2      OT      -0.834000       15.9994           0
     25716 TIP3     2781     TIP3     H1       HT       0.417000       1.00800           0
     25717 TIP3     2781     TIP3     H2       HT       0.417000       1.00800           0
     25718 TIP3     2782     TIP3     OH2      OT      -0.834000       15.9994           0
     25719 TIP3     2782     TIP3     H1       HT       0.417000       1.00800           0
     25720 TIP3     2782     TIP3     H2       HT       0.417000       1.00800           0
     25721 TIP3     2783     TIP3     OH2      OT      -0.834000       15.9994           0
     25722 TIP3     2783     TIP3     H1       HT       0.417000       1.00800           0
     25723 TIP3     2783     TIP3     H2       HT       0.417000       1.00800           0
     25724 TIP3     2784     TIP3     OH2      OT      -0.834000       15.9994           0
     25725 TIP3     2784     TIP3     H1       HT       0.417000       1.00800           0
     25726 TIP3     2784     TIP3     H2       HT       0.417000       1.00800           0
     25727 TIP3     2785     TIP3     OH2      OT      -0.834000       15.9994           0
     25728 TIP3     2785     TIP3     H1       HT       0.417000       1.00800           0
     25729 TIP3     2785     TIP3     H2       HT       0.417000       1.00800           0
     25730 TIP3     2786     TIP3     OH2      OT      -0.834000       15.9994           0
     25731 TIP3     2786     TIP3     H1       HT       0.417000       1.00800           0
     25732 TIP3     2786     TIP3     H2       HT       0.417000       1.00800           0
     25733 TIP3     2787     TIP3     OH2      OT      -0.834000       15.9994           0
     25734 TIP3     2787     TIP3     H1       HT       0.417000       1.00800           0
     25735 TIP3     2787     TIP3     H2       HT       0.417000       1.00800           0
     25736 TIP3     2788     TIP3     OH2      OT      -0.834000       15.9994           0
     25737 TIP3     2788     TIP3     H1       HT       0.417000       1.00800           0
     25738 TIP3     2788     TIP3     H2       HT       0.417000       1.00800           0
     25739 TIP3     2789     TIP3     OH2      OT      -0.834000       15.9994           0
     25740 TIP3     2789     TIP3     H1       HT       0.417000       1.00800           0
     25741 TIP3     2789     TIP3     H2       HT       0.417000       1.00800           0
     25742 TIP3     2790     TIP3     OH2      OT      -0.834000       15.9994           0
     25743 TIP3     2790     TIP3     H1       HT       0.417000       1.00800           0
     25744 TIP3     2790     TIP3     H2       HT       0.417000       1.00800           0
     25745 TIP3     2791     TIP3     OH2      OT      -0.834000       15.9994           0
     25746 TIP3     2791     TIP3     H1       HT       0.417000       1.00800           0
     25747 TIP3     2791     TIP3     H2       HT       0.417000       1.00800           0
     25748 TIP3     2792     TIP3     OH2      OT      -0.834000       15.9994           0
     25749 TIP3     2792     TIP3     H1       HT       0.417000       1.00800           0
     25750 TIP3     2792     TIP3     H2       HT       0.417000       1.00800           0
     25751 TIP3     2793     TIP3     OH2      OT      -0.834000       15.9994           0
     25752 TIP3     2793     TIP3     H1       HT       0.417000       1.00800           0
     25753 TIP3     2793     TIP3     H2       HT       0.417000       1.00800           0
     25754 TIP3     2794     TIP3     OH2      OT      -0.834000       15.9994           0
     25755 TIP3     2794     TIP3     H1       HT       0.417000       1.00800           0
     25756 TIP3     2794     TIP3     H2       HT       0.417000       1.00800           0
     25757 TIP3     2795     TIP3     OH2      OT      -0.834000       15.9994           0
     25758 TIP3     2795     TIP3     H1       HT       0.417000       1.00800           0
     25759 TIP3     2795     TIP3     H2       HT       0.417000       1.00800           0
     25760 TIP3     2796     TIP3     OH2      OT      -0.834000       15.9994           0
     25761 TIP3     2796     TIP3     H1       HT       0.417000       1.00800           0
     25762 TIP3     2796     TIP3     H2       HT       0.417000       1.00800           0
     25763 TIP3     2797     TIP3     OH2      OT      -0.834000       15.9994           0
     25764 TIP3     2797     TIP3     H1       HT       0.417000       1.00800           0
     25765 TIP3     2797     TIP3     H2       HT       0.417000       1.00800           0
     25766 TIP3     2798     TIP3     OH2      OT      -0.834000       15.9994           0
     25767 TIP3     2798     TIP3     H1       HT       0.417000       1.00800           0
     25768 TIP3     2798     TIP3     H2       HT       0.417000       1.00800           0
     25769 TIP3     2799     TIP3     OH2      OT      -0.834000       15.9994           0
     25770 TIP3     2799     TIP3     H1       HT       0.417000       1.00800           0
     25771 TIP3     2799     TIP3     H2       HT       0.417000       1.00800           0
     25772 TIP3     2800     TIP3     OH2      OT      -0.834000       15.9994           0
     25773 TIP3     2800     TIP3     H1       HT       0.417000       1.00800           0
     25774 TIP3     2800     TIP3     H2       HT       0.417000       1.00800           0
     25775 TIP3     2801     TIP3     OH2      OT      -0.834000       15.9994           0
     25776 TIP3     2801     TIP3     H1       HT       0.417000       1.00800           0
     25777 TIP3     2801     TIP3     H2       HT       0.417000       1.00800           0
     25778 TIP3     2802     TIP3     OH2      OT      -0.834000       15.9994           0
     25779 TIP3     2802     TIP3     H1       HT       0.417000       1.00800           0
     25780 TIP3     2802     TIP3     H2       HT       0.417000       1.00800           0
     25781 TIP3     2803     TIP3     OH2      OT      -0.834000       15.9994           0
     25782 TIP3     2803     TIP3     H1       HT       0.417000       1.00800           0
     25783 TIP3     2803     TIP3     H2       HT       0.417000       1.00800           0
     25784 TIP3     2804     TIP3     OH2      OT      -0.834000       15.9994           0
     25785 TIP3     2804     TIP3     H1       HT       0.417000       1.00800           0
     25786 TIP3     2804     TIP3     H2       HT       0.417000       1.00800           0
     25787 TIP3     2805     TIP3     OH2      OT      -0.834000       15.9994           0
     25788 TIP3     2805     TIP3     H1       HT       0.417000       1.00800           0
     25789 TIP3     2805     TIP3     H2       HT       0.417000       1.00800           0
     25790 TIP3     2806     TIP3     OH2      OT      -0.834000       15.9994           0
     25791 TIP3     2806     TIP3     H1       HT       0.417000       1.00800           0
     25792 TIP3     2806     TIP3     H2       HT       0.417000       1.00800           0
     25793 TIP3     2807     TIP3     OH2      OT      -0.834000       15.9994           0
     25794 TIP3     2807     TIP3     H1       HT       0.417000       1.00800           0
     25795 TIP3     2807     TIP3     H2       HT       0.417000       1.00800           0
     25796 TIP3     2808     TIP3     OH2      OT      -0.834000       15.9994           0
     25797 TIP3     2808     TIP3     H1       HT       0.417000       1.00800           0
     25798 TIP3     2808     TIP3     H2       HT       0.417000       1.00800           0
     25799 TIP3     2809     TIP3     OH2      OT      -0.834000       15.9994           0
     25800 TIP3     2809     TIP3     H1       HT       0.417000       1.00800           0
     25801 TIP3     2809     TIP3     H2       HT       0.417000       1.00800           0
     25802 TIP3     2810     TIP3     OH2      OT      -0.834000       15.9994           0
     25803 TIP3     2810     TIP3     H1       HT       0.417000       1.00800           0
     25804 TIP3     2810     TIP3     H2       HT       0.417000       1.00800           0
     25805 TIP3     2811     TIP3     OH2      OT      -0.834000       15.9994           0
     25806 TIP3     2811     TIP3     H1       HT       0.417000       1.00800           0
     25807 TIP3     2811     TIP3     H2       HT       0.417000       1.00800           0
     25808 TIP3     2812     TIP3     OH2      OT      -0.834000       15.9994           0
     25809 TIP3     2812     TIP3     H1       HT       0.417000       1.00800           0
     25810 TIP3     2812     TIP3     H2       HT       0.417000       1.00800           0
     25811 TIP3     2813     TIP3     OH2      OT      -0.834000       15.9994           0
     25812 TIP3     2813     TIP3     H1       HT       0.417000       1.00800           0
     25813 TIP3     2813     TIP3     H2       HT       0.417000       1.00800           0
     25814 TIP3     2814     TIP3     OH2      OT      -0.834000       15.9994           0
     25815 TIP3     2814     TIP3     H1       HT       0.417000       1.00800           0
     25816 TIP3     2814     TIP3     H2       HT       0.417000       1.00800           0
     25817 TIP3     2815     TIP3     OH2      OT      -0.834000       15.9994           0
     25818 TIP3     2815     TIP3     H1       HT       0.417000       1.00800           0
     25819 TIP3     2815     TIP3     H2       HT       0.417000       1.00800           0
     25820 TIP3     2816     TIP3     OH2      OT      -0.834000       15.9994           0
     25821 TIP3     2816     TIP3     H1       HT       0.417000       1.00800           0
     25822 TIP3     2816     TIP3     H2       HT       0.417000       1.00800           0
     25823 TIP3     2817     TIP3     OH2      OT      -0.834000       15.9994           0
     25824 TIP3     2817     TIP3     H1       HT       0.417000       1.00800           0
     25825 TIP3     2817     TIP3     H2       HT       0.417000       1.00800           0
     25826 TIP3     2818     TIP3     OH2      OT      -0.834000       15.9994           0
     25827 TIP3     2818     TIP3     H1       HT       0.417000       1.00800           0
     25828 TIP3     2818     TIP3     H2       HT       0.417000       1.00800           0
     25829 TIP3     2819     TIP3     OH2      OT      -0.834000       15.9994           0
     25830 TIP3     2819     TIP3     H1       HT       0.417000       1.00800           0
     25831 TIP3     2819     TIP3     H2       HT       0.417000       1.00800           0
     25832 TIP3     2820     TIP3     OH2      OT      -0.834000       15.9994           0
     25833 TIP3     2820     TIP3     H1       HT       0.417000       1.00800           0
     25834 TIP3     2820     TIP3     H2       HT       0.417000       1.00800           0
     25835 TIP3     2821     TIP3     OH2      OT      -0.834000       15.9994           0
     25836 TIP3     2821     TIP3     H1       HT       0.417000       1.00800           0
     25837 TIP3     2821     TIP3     H2       HT       0.417000       1.00800           0
     25838 TIP3     2822     TIP3     OH2      OT      -0.834000       15.9994           0
     25839 TIP3     2822     TIP3     H1       HT       0.417000       1.00800           0
     25840 TIP3     2822     TIP3     H2       HT       0.417000       1.00800           0
     25841 TIP3     2823     TIP3     OH2      OT      -0.834000       15.9994           0
     25842 TIP3     2823     TIP3     H1       HT       0.417000       1.00800           0
     25843 TIP3     2823     TIP3     H2       HT       0.417000       1.00800           0
     25844 TIP3     2824     TIP3     OH2      OT      -0.834000       15.9994           0
     25845 TIP3     2824     TIP3     H1       HT       0.417000       1.00800           0
     25846 TIP3     2824     TIP3     H2       HT       0.417000       1.00800           0
     25847 TIP3     2825     TIP3     OH2      OT      -0.834000       15.9994           0
     25848 TIP3     2825     TIP3     H1       HT       0.417000       1.00800           0
     25849 TIP3     2825     TIP3     H2       HT       0.417000       1.00800           0
     25850 TIP3     2826     TIP3     OH2      OT      -0.834000       15.9994           0
     25851 TIP3     2826     TIP3     H1       HT       0.417000       1.00800           0
     25852 TIP3     2826     TIP3     H2       HT       0.417000       1.00800           0
     25853 TIP3     2827     TIP3     OH2      OT      -0.834000       15.9994           0
     25854 TIP3     2827     TIP3     H1       HT       0.417000       1.00800           0
     25855 TIP3     2827     TIP3     H2       HT       0.417000       1.00800           0
     25856 TIP3     2828     TIP3     OH2      OT      -0.834000       15.9994           0
     25857 TIP3     2828     TIP3     H1       HT       0.417000       1.00800           0
     25858 TIP3     2828     TIP3     H2       HT       0.417000       1.00800           0
     25859 TIP3     2829     TIP3     OH2      OT      -0.834000       15.9994           0
     25860 TIP3     2829     TIP3     H1       HT       0.417000       1.00800           0
     25861 TIP3     2829     TIP3     H2       HT       0.417000       1.00800           0
     25862 TIP3     2830     TIP3     OH2      OT      -0.834000       15.9994           0
     25863 TIP3     2830     TIP3     H1       HT       0.417000       1.00800           0
     25864 TIP3     2830     TIP3     H2       HT       0.417000       1.00800           0
     25865 TIP3     2831     TIP3     OH2      OT      -0.834000       15.9994           0
     25866 TIP3     2831     TIP3     H1       HT       0.417000       1.00800           0
     25867 TIP3     2831     TIP3     H2       HT       0.417000       1.00800           0
     25868 TIP3     2832     TIP3     OH2      OT      -0.834000       15.9994           0
     25869 TIP3     2832     TIP3     H1       HT       0.417000       1.00800           0
     25870 TIP3     2832     TIP3     H2       HT       0.417000       1.00800           0
     25871 TIP3     2833     TIP3     OH2      OT      -0.834000       15.9994           0
     25872 TIP3     2833     TIP3     H1       HT       0.417000       1.00800           0
     25873 TIP3     2833     TIP3     H2       HT       0.417000       1.00800           0
     25874 TIP3     2834     TIP3     OH2      OT      -0.834000       15.9994           0
     25875 TIP3     2834     TIP3     H1       HT       0.417000       1.00800           0
     25876 TIP3     2834     TIP3     H2       HT       0.417000       1.00800           0
     25877 TIP3     2835     TIP3     OH2      OT      -0.834000       15.9994           0
     25878 TIP3     2835     TIP3     H1       HT       0.417000       1.00800           0
     25879 TIP3     2835     TIP3     H2       HT       0.417000       1.00800           0
     25880 TIP3     2836     TIP3     OH2      OT      -0.834000       15.9994           0
     25881 TIP3     2836     TIP3     H1       HT       0.417000       1.00800           0
     25882 TIP3     2836     TIP3     H2       HT       0.417000       1.00800           0
     25883 TIP3     2837     TIP3     OH2      OT      -0.834000       15.9994           0
     25884 TIP3     2837     TIP3     H1       HT       0.417000       1.00800           0
     25885 TIP3     2837     TIP3     H2       HT       0.417000       1.00800           0
     25886 TIP3     2838     TIP3     OH2      OT      -0.834000       15.9994           0
     25887 TIP3     2838     TIP3     H1       HT       0.417000       1.00800           0
     25888 TIP3     2838     TIP3     H2       HT       0.417000       1.00800           0
     25889 TIP3     2839     TIP3     OH2      OT      -0.834000       15.9994           0
     25890 TIP3     2839     TIP3     H1       HT       0.417000       1.00800           0
     25891 TIP3     2839     TIP3     H2       HT       0.417000       1.00800           0
     25892 TIP3     2840     TIP3     OH2      OT      -0.834000       15.9994           0
     25893 TIP3     2840     TIP3     H1       HT       0.417000       1.00800           0
     25894 TIP3     2840     TIP3     H2       HT       0.417000       1.00800           0
     25895 TIP3     2841     TIP3     OH2      OT      -0.834000       15.9994           0
     25896 TIP3     2841     TIP3     H1       HT       0.417000       1.00800           0
     25897 TIP3     2841     TIP3     H2       HT       0.417000       1.00800           0
     25898 TIP3     2842     TIP3     OH2      OT      -0.834000       15.9994           0
     25899 TIP3     2842     TIP3     H1       HT       0.417000       1.00800           0
     25900 TIP3     2842     TIP3     H2       HT       0.417000       1.00800           0
     25901 TIP3     2843     TIP3     OH2      OT      -0.834000       15.9994           0
     25902 TIP3     2843     TIP3     H1       HT       0.417000       1.00800           0
     25903 TIP3     2843     TIP3     H2       HT       0.417000       1.00800           0
     25904 TIP3     2844     TIP3     OH2      OT      -0.834000       15.9994           0
     25905 TIP3     2844     TIP3     H1       HT       0.417000       1.00800           0
     25906 TIP3     2844     TIP3     H2       HT       0.417000       1.00800           0
     25907 TIP3     2845     TIP3     OH2      OT      -0.834000       15.9994           0
     25908 TIP3     2845     TIP3     H1       HT       0.417000       1.00800           0
     25909 TIP3     2845     TIP3     H2       HT       0.417000       1.00800           0
     25910 TIP3     2846     TIP3     OH2      OT      -0.834000       15.9994           0
     25911 TIP3     2846     TIP3     H1       HT       0.417000       1.00800           0
     25912 TIP3     2846     TIP3     H2       HT       0.417000       1.00800           0
     25913 TIP3     2847     TIP3     OH2      OT      -0.834000       15.9994           0
     25914 TIP3     2847     TIP3     H1       HT       0.417000       1.00800           0
     25915 TIP3     2847     TIP3     H2       HT       0.417000       1.00800           0
     25916 TIP3     2848     TIP3     OH2      OT      -0.834000       15.9994           0
     25917 TIP3     2848     TIP3     H1       HT       0.417000       1.00800           0
     25918 TIP3     2848     TIP3     H2       HT       0.417000       1.00800           0
     25919 TIP3     2849     TIP3     OH2      OT      -0.834000       15.9994           0
     25920 TIP3     2849     TIP3     H1       HT       0.417000       1.00800           0
     25921 TIP3     2849     TIP3     H2       HT       0.417000       1.00800           0
     25922 TIP3     2850     TIP3     OH2      OT      -0.834000       15.9994           0
     25923 TIP3     2850     TIP3     H1       HT       0.417000       1.00800           0
     25924 TIP3     2850     TIP3     H2       HT       0.417000       1.00800           0
     25925 TIP3     2851     TIP3     OH2      OT      -0.834000       15.9994           0
     25926 TIP3     2851     TIP3     H1       HT       0.417000       1.00800           0
     25927 TIP3     2851     TIP3     H2       HT       0.417000       1.00800           0
     25928 TIP3     2852     TIP3     OH2      OT      -0.834000       15.9994           0
     25929 TIP3     2852     TIP3     H1       HT       0.417000       1.00800           0
     25930 TIP3     2852     TIP3     H2       HT       0.417000       1.00800           0
     25931 TIP3     2853     TIP3     OH2      OT      -0.834000       15.9994           0
     25932 TIP3     2853     TIP3     H1       HT       0.417000       1.00800           0
     25933 TIP3     2853     TIP3     H2       HT       0.417000       1.00800           0
     25934 TIP3     2854     TIP3     OH2      OT      -0.834000       15.9994           0
     25935 TIP3     2854     TIP3     H1       HT       0.417000       1.00800           0
     25936 TIP3     2854     TIP3     H2       HT       0.417000       1.00800           0
     25937 TIP3     2855     TIP3     OH2      OT      -0.834000       15.9994           0
     25938 TIP3     2855     TIP3     H1       HT       0.417000       1.00800           0
     25939 TIP3     2855     TIP3     H2       HT       0.417000       1.00800           0
     25940 TIP3     2856     TIP3     OH2      OT      -0.834000       15.9994           0
     25941 TIP3     2856     TIP3     H1       HT       0.417000       1.00800           0
     25942 TIP3     2856     TIP3     H2       HT       0.417000       1.00800           0
     25943 TIP3     2857     TIP3     OH2      OT      -0.834000       15.9994           0
     25944 TIP3     2857     TIP3     H1       HT       0.417000       1.00800           0
     25945 TIP3     2857     TIP3     H2       HT       0.417000       1.00800           0
     25946 TIP3     2858     TIP3     OH2      OT      -0.834000       15.9994           0
     25947 TIP3     2858     TIP3     H1       HT       0.417000       1.00800           0
     25948 TIP3     2858     TIP3     H2       HT       0.417000       1.00800           0
     25949 TIP3     2859     TIP3     OH2      OT      -0.834000       15.9994           0
     25950 TIP3     2859     TIP3     H1       HT       0.417000       1.00800           0
     25951 TIP3     2859     TIP3     H2       HT       0.417000       1.00800           0
     25952 TIP3     2860     TIP3     OH2      OT      -0.834000       15.9994           0
     25953 TIP3     2860     TIP3     H1       HT       0.417000       1.00800           0
     25954 TIP3     2860     TIP3     H2       HT       0.417000       1.00800           0
     25955 TIP3     2861     TIP3     OH2      OT      -0.834000       15.9994           0
     25956 TIP3     2861     TIP3     H1       HT       0.417000       1.00800           0
     25957 TIP3     2861     TIP3     H2       HT       0.417000       1.00800           0
     25958 TIP3     2862     TIP3     OH2      OT      -0.834000       15.9994           0
     25959 TIP3     2862     TIP3     H1       HT       0.417000       1.00800           0
     25960 TIP3     2862     TIP3     H2       HT       0.417000       1.00800           0
     25961 TIP3     2863     TIP3     OH2      OT      -0.834000       15.9994           0
     25962 TIP3     2863     TIP3     H1       HT       0.417000       1.00800           0
     25963 TIP3     2863     TIP3     H2       HT       0.417000       1.00800           0
     25964 TIP3     2864     TIP3     OH2      OT      -0.834000       15.9994           0
     25965 TIP3     2864     TIP3     H1       HT       0.417000       1.00800           0
     25966 TIP3     2864     TIP3     H2       HT       0.417000       1.00800           0
     25967 TIP3     2865     TIP3     OH2      OT      -0.834000       15.9994           0
     25968 TIP3     2865     TIP3     H1       HT       0.417000       1.00800           0
     25969 TIP3     2865     TIP3     H2       HT       0.417000       1.00800           0
     25970 TIP3     2866     TIP3     OH2      OT      -0.834000       15.9994           0
     25971 TIP3     2866     TIP3     H1       HT       0.417000       1.00800           0
     25972 TIP3     2866     TIP3     H2       HT       0.417000       1.00800           0
     25973 TIP3     2867     TIP3     OH2      OT      -0.834000       15.9994           0
     25974 TIP3     2867     TIP3     H1       HT       0.417000       1.00800           0
     25975 TIP3     2867     TIP3     H2       HT       0.417000       1.00800           0
     25976 TIP3     2868     TIP3     OH2      OT      -0.834000       15.9994           0
     25977 TIP3     2868     TIP3     H1       HT       0.417000       1.00800           0
     25978 TIP3     2868     TIP3     H2       HT       0.417000       1.00800           0
     25979 TIP3     2869     TIP3     OH2      OT      -0.834000       15.9994           0
     25980 TIP3     2869     TIP3     H1       HT       0.417000       1.00800           0
     25981 TIP3     2869     TIP3     H2       HT       0.417000       1.00800           0
     25982 TIP3     2870     TIP3     OH2      OT      -0.834000       15.9994           0
     25983 TIP3     2870     TIP3     H1       HT       0.417000       1.00800           0
     25984 TIP3     2870     TIP3     H2       HT       0.417000       1.00800           0
     25985 TIP3     2871     TIP3     OH2      OT      -0.834000       15.9994           0
     25986 TIP3     2871     TIP3     H1       HT       0.417000       1.00800           0
     25987 TIP3     2871     TIP3     H2       HT       0.417000       1.00800           0
     25988 TIP3     2872     TIP3     OH2      OT      -0.834000       15.9994           0
     25989 TIP3     2872     TIP3     H1       HT       0.417000       1.00800           0
     25990 TIP3     2872     TIP3     H2       HT       0.417000       1.00800           0
     25991 TIP3     2873     TIP3     OH2      OT      -0.834000       15.9994           0
     25992 TIP3     2873     TIP3     H1       HT       0.417000       1.00800           0
     25993 TIP3     2873     TIP3     H2       HT       0.417000       1.00800           0
     25994 TIP3     2874     TIP3     OH2      OT      -0.834000       15.9994           0
     25995 TIP3     2874     TIP3     H1       HT       0.417000       1.00800           0
     25996 TIP3     2874     TIP3     H2       HT       0.417000       1.00800           0
     25997 TIP3     2875     TIP3     OH2      OT      -0.834000       15.9994           0
     25998 TIP3     2875     TIP3     H1       HT       0.417000       1.00800           0
     25999 TIP3     2875     TIP3     H2       HT       0.417000       1.00800           0
     26000 TIP3     2876     TIP3     OH2      OT      -0.834000       15.9994           0
     26001 TIP3     2876     TIP3     H1       HT       0.417000       1.00800           0
     26002 TIP3     2876     TIP3     H2       HT       0.417000       1.00800           0
     26003 TIP3     2877     TIP3     OH2      OT      -0.834000       15.9994           0
     26004 TIP3     2877     TIP3     H1       HT       0.417000       1.00800           0
     26005 TIP3     2877     TIP3     H2       HT       0.417000       1.00800           0
     26006 TIP3     2878     TIP3     OH2      OT      -0.834000       15.9994           0
     26007 TIP3     2878     TIP3     H1       HT       0.417000       1.00800           0
     26008 TIP3     2878     TIP3     H2       HT       0.417000       1.00800           0
     26009 TIP3     2879     TIP3     OH2      OT      -0.834000       15.9994           0
     26010 TIP3     2879     TIP3     H1       HT       0.417000       1.00800           0
     26011 TIP3     2879     TIP3     H2       HT       0.417000       1.00800           0
     26012 TIP3     2880     TIP3     OH2      OT      -0.834000       15.9994           0
     26013 TIP3     2880     TIP3     H1       HT       0.417000       1.00800           0
     26014 TIP3     2880     TIP3     H2       HT       0.417000       1.00800           0
     26015 TIP3     2881     TIP3     OH2      OT      -0.834000       15.9994           0
     26016 TIP3     2881     TIP3     H1       HT       0.417000       1.00800           0
     26017 TIP3     2881     TIP3     H2       HT       0.417000       1.00800           0
     26018 TIP3     2882     TIP3     OH2      OT      -0.834000       15.9994           0
     26019 TIP3     2882     TIP3     H1       HT       0.417000       1.00800           0
     26020 TIP3     2882     TIP3     H2       HT       0.417000       1.00800           0
     26021 TIP3     2883     TIP3     OH2      OT      -0.834000       15.9994           0
     26022 TIP3     2883     TIP3     H1       HT       0.417000       1.00800           0
     26023 TIP3     2883     TIP3     H2       HT       0.417000       1.00800           0
     26024 TIP3     2884     TIP3     OH2      OT      -0.834000       15.9994           0
     26025 TIP3     2884     TIP3     H1       HT       0.417000       1.00800           0
     26026 TIP3     2884     TIP3     H2       HT       0.417000       1.00800           0
     26027 TIP3     2885     TIP3     OH2      OT      -0.834000       15.9994           0
     26028 TIP3     2885     TIP3     H1       HT       0.417000       1.00800           0
     26029 TIP3     2885     TIP3     H2       HT       0.417000       1.00800           0
     26030 TIP3     2886     TIP3     OH2      OT      -0.834000       15.9994           0
     26031 TIP3     2886     TIP3     H1       HT       0.417000       1.00800           0
     26032 TIP3     2886     TIP3     H2       HT       0.417000       1.00800           0
     26033 TIP3     2887     TIP3     OH2      OT      -0.834000       15.9994           0
     26034 TIP3     2887     TIP3     H1       HT       0.417000       1.00800           0
     26035 TIP3     2887     TIP3     H2       HT       0.417000       1.00800           0
     26036 TIP3     2888     TIP3     OH2      OT      -0.834000       15.9994           0
     26037 TIP3     2888     TIP3     H1       HT       0.417000       1.00800           0
     26038 TIP3     2888     TIP3     H2       HT       0.417000       1.00800           0
     26039 TIP3     2889     TIP3     OH2      OT      -0.834000       15.9994           0
     26040 TIP3     2889     TIP3     H1       HT       0.417000       1.00800           0
     26041 TIP3     2889     TIP3     H2       HT       0.417000       1.00800           0
     26042 TIP3     2890     TIP3     OH2      OT      -0.834000       15.9994           0
     26043 TIP3     2890     TIP3     H1       HT       0.417000       1.00800           0
     26044 TIP3     2890     TIP3     H2       HT       0.417000       1.00800           0
     26045 TIP3     2891     TIP3     OH2      OT      -0.834000       15.9994           0
     26046 TIP3     2891     TIP3     H1       HT       0.417000       1.00800           0
     26047 TIP3     2891     TIP3     H2       HT       0.417000       1.00800           0
     26048 TIP3     2892     TIP3     OH2      OT      -0.834000       15.9994           0
     26049 TIP3     2892     TIP3     H1       HT       0.417000       1.00800           0
     26050 TIP3     2892     TIP3     H2       HT       0.417000       1.00800           0
     26051 TIP3     2893     TIP3     OH2      OT      -0.834000       15.9994           0
     26052 TIP3     2893     TIP3     H1       HT       0.417000       1.00800           0
     26053 TIP3     2893     TIP3     H2       HT       0.417000       1.00800           0
     26054 TIP3     2894     TIP3     OH2      OT      -0.834000       15.9994           0
     26055 TIP3     2894     TIP3     H1       HT       0.417000       1.00800           0
     26056 TIP3     2894     TIP3     H2       HT       0.417000       1.00800           0
     26057 TIP3     2895     TIP3     OH2      OT      -0.834000       15.9994           0
     26058 TIP3     2895     TIP3     H1       HT       0.417000       1.00800           0
     26059 TIP3     2895     TIP3     H2       HT       0.417000       1.00800           0
     26060 TIP3     2896     TIP3     OH2      OT      -0.834000       15.9994           0
     26061 TIP3     2896     TIP3     H1       HT       0.417000       1.00800           0
     26062 TIP3     2896     TIP3     H2       HT       0.417000       1.00800           0
     26063 TIP3     2897     TIP3     OH2      OT      -0.834000       15.9994           0
     26064 TIP3     2897     TIP3     H1       HT       0.417000       1.00800           0
     26065 TIP3     2897     TIP3     H2       HT       0.417000       1.00800           0
     26066 TIP3     2898     TIP3     OH2      OT      -0.834000       15.9994           0
     26067 TIP3     2898     TIP3     H1       HT       0.417000       1.00800           0
     26068 TIP3     2898     TIP3     H2       HT       0.417000       1.00800           0
     26069 TIP3     2899     TIP3     OH2      OT      -0.834000       15.9994           0
     26070 TIP3     2899     TIP3     H1       HT       0.417000       1.00800           0
     26071 TIP3     2899     TIP3     H2       HT       0.417000       1.00800           0
     26072 TIP3     2900     TIP3     OH2      OT      -0.834000       15.9994           0
     26073 TIP3     2900     TIP3     H1       HT       0.417000       1.00800           0
     26074 TIP3     2900     TIP3     H2       HT       0.417000       1.00800           0
     26075 TIP3     2901     TIP3     OH2      OT      -0.834000       15.9994           0
     26076 TIP3     2901     TIP3     H1       HT       0.417000       1.00800           0
     26077 TIP3     2901     TIP3     H2       HT       0.417000       1.00800           0
     26078 TIP3     2902     TIP3     OH2      OT      -0.834000       15.9994           0
     26079 TIP3     2902     TIP3     H1       HT       0.417000       1.00800           0
     26080 TIP3     2902     TIP3     H2       HT       0.417000       1.00800           0
     26081 TIP3     2903     TIP3     OH2      OT      -0.834000       15.9994           0
     26082 TIP3     2903     TIP3     H1       HT       0.417000       1.00800           0
     26083 TIP3     2903     TIP3     H2       HT       0.417000       1.00800           0
     26084 TIP3     2904     TIP3     OH2      OT      -0.834000       15.9994           0
     26085 TIP3     2904     TIP3     H1       HT       0.417000       1.00800           0
     26086 TIP3     2904     TIP3     H2       HT       0.417000       1.00800           0
     26087 TIP3     2905     TIP3     OH2      OT      -0.834000       15.9994           0
     26088 TIP3     2905     TIP3     H1       HT       0.417000       1.00800           0
     26089 TIP3     2905     TIP3     H2       HT       0.417000       1.00800           0
     26090 TIP3     2906     TIP3     OH2      OT      -0.834000       15.9994           0
     26091 TIP3     2906     TIP3     H1       HT       0.417000       1.00800           0
     26092 TIP3     2906     TIP3     H2       HT       0.417000       1.00800           0
     26093 TIP3     2907     TIP3     OH2      OT      -0.834000       15.9994           0
     26094 TIP3     2907     TIP3     H1       HT       0.417000       1.00800           0
     26095 TIP3     2907     TIP3     H2       HT       0.417000       1.00800           0
     26096 TIP3     2908     TIP3     OH2      OT      -0.834000       15.9994           0
     26097 TIP3     2908     TIP3     H1       HT       0.417000       1.00800           0
     26098 TIP3     2908     TIP3     H2       HT       0.417000       1.00800           0
     26099 TIP3     2909     TIP3     OH2      OT      -0.834000       15.9994           0
     26100 TIP3     2909     TIP3     H1       HT       0.417000       1.00800           0
     26101 TIP3     2909     TIP3     H2       HT       0.417000       1.00800           0
     26102 TIP3     2910     TIP3     OH2      OT      -0.834000       15.9994           0
     26103 TIP3     2910     TIP3     H1       HT       0.417000       1.00800           0
     26104 TIP3     2910     TIP3     H2       HT       0.417000       1.00800           0
     26105 TIP3     2911     TIP3     OH2      OT      -0.834000       15.9994           0
     26106 TIP3     2911     TIP3     H1       HT       0.417000       1.00800           0
     26107 TIP3     2911     TIP3     H2       HT       0.417000       1.00800           0
     26108 TIP3     2912     TIP3     OH2      OT      -0.834000       15.9994           0
     26109 TIP3     2912     TIP3     H1       HT       0.417000       1.00800           0
     26110 TIP3     2912     TIP3     H2       HT       0.417000       1.00800           0
     26111 TIP3     2913     TIP3     OH2      OT      -0.834000       15.9994           0
     26112 TIP3     2913     TIP3     H1       HT       0.417000       1.00800           0
     26113 TIP3     2913     TIP3     H2       HT       0.417000       1.00800           0
     26114 TIP3     2914     TIP3     OH2      OT      -0.834000       15.9994           0
     26115 TIP3     2914     TIP3     H1       HT       0.417000       1.00800           0
     26116 TIP3     2914     TIP3     H2       HT       0.417000       1.00800           0
     26117 TIP3     2915     TIP3     OH2      OT      -0.834000       15.9994           0
     26118 TIP3     2915     TIP3     H1       HT       0.417000       1.00800           0
     26119 TIP3     2915     TIP3     H2       HT       0.417000       1.00800           0
     26120 TIP3     2916     TIP3     OH2      OT      -0.834000       15.9994           0
     26121 TIP3     2916     TIP3     H1       HT       0.417000       1.00800           0
     26122 TIP3     2916     TIP3     H2       HT       0.417000       1.00800           0
     26123 TIP3     2917     TIP3     OH2      OT      -0.834000       15.9994           0
     26124 TIP3     2917     TIP3     H1       HT       0.417000       1.00800           0
     26125 TIP3     2917     TIP3     H2       HT       0.417000       1.00800           0
     26126 TIP3     2918     TIP3     OH2      OT      -0.834000       15.9994           0
     26127 TIP3     2918     TIP3     H1       HT       0.417000       1.00800           0
     26128 TIP3     2918     TIP3     H2       HT       0.417000       1.00800           0
     26129 TIP3     2919     TIP3     OH2      OT      -0.834000       15.9994           0
     26130 TIP3     2919     TIP3     H1       HT       0.417000       1.00800           0
     26131 TIP3     2919     TIP3     H2       HT       0.417000       1.00800           0
     26132 TIP3     2920     TIP3     OH2      OT      -0.834000       15.9994           0
     26133 TIP3     2920     TIP3     H1       HT       0.417000       1.00800           0
     26134 TIP3     2920     TIP3     H2       HT       0.417000       1.00800           0
     26135 TIP3     2921     TIP3     OH2      OT      -0.834000       15.9994           0
     26136 TIP3     2921     TIP3     H1       HT       0.417000       1.00800           0
     26137 TIP3     2921     TIP3     H2       HT       0.417000       1.00800           0
     26138 TIP3     2922     TIP3     OH2      OT      -0.834000       15.9994           0
     26139 TIP3     2922     TIP3     H1       HT       0.417000       1.00800           0
     26140 TIP3     2922     TIP3     H2       HT       0.417000       1.00800           0
     26141 TIP3     2923     TIP3     OH2      OT      -0.834000       15.9994           0
     26142 TIP3     2923     TIP3     H1       HT       0.417000       1.00800           0
     26143 TIP3     2923     TIP3     H2       HT       0.417000       1.00800           0
     26144 TIP3     2924     TIP3     OH2      OT      -0.834000       15.9994           0
     26145 TIP3     2924     TIP3     H1       HT       0.417000       1.00800           0
     26146 TIP3     2924     TIP3     H2       HT       0.417000       1.00800           0
     26147 TIP3     2925     TIP3     OH2      OT      -0.834000       15.9994           0
     26148 TIP3     2925     TIP3     H1       HT       0.417000       1.00800           0
     26149 TIP3     2925     TIP3     H2       HT       0.417000       1.00800           0
     26150 TIP3     2926     TIP3     OH2      OT      -0.834000       15.9994           0
     26151 TIP3     2926     TIP3     H1       HT       0.417000       1.00800           0
     26152 TIP3     2926     TIP3     H2       HT       0.417000       1.00800           0
     26153 TIP3     2927     TIP3     OH2      OT      -0.834000       15.9994           0
     26154 TIP3     2927     TIP3     H1       HT       0.417000       1.00800           0
     26155 TIP3     2927     TIP3     H2       HT       0.417000       1.00800           0
     26156 TIP3     2928     TIP3     OH2      OT      -0.834000       15.9994           0
     26157 TIP3     2928     TIP3     H1       HT       0.417000       1.00800           0
     26158 TIP3     2928     TIP3     H2       HT       0.417000       1.00800           0
     26159 TIP3     2929     TIP3     OH2      OT      -0.834000       15.9994           0
     26160 TIP3     2929     TIP3     H1       HT       0.417000       1.00800           0
     26161 TIP3     2929     TIP3     H2       HT       0.417000       1.00800           0
     26162 TIP3     2930     TIP3     OH2      OT      -0.834000       15.9994           0
     26163 TIP3     2930     TIP3     H1       HT       0.417000       1.00800           0
     26164 TIP3     2930     TIP3     H2       HT       0.417000       1.00800           0
     26165 TIP3     2931     TIP3     OH2      OT      -0.834000       15.9994           0
     26166 TIP3     2931     TIP3     H1       HT       0.417000       1.00800           0
     26167 TIP3     2931     TIP3     H2       HT       0.417000       1.00800           0
     26168 TIP3     2932     TIP3     OH2      OT      -0.834000       15.9994           0
     26169 TIP3     2932     TIP3     H1       HT       0.417000       1.00800           0
     26170 TIP3     2932     TIP3     H2       HT       0.417000       1.00800           0
     26171 TIP3     2933     TIP3     OH2      OT      -0.834000       15.9994           0
     26172 TIP3     2933     TIP3     H1       HT       0.417000       1.00800           0
     26173 TIP3     2933     TIP3     H2       HT       0.417000       1.00800           0
     26174 TIP3     2934     TIP3     OH2      OT      -0.834000       15.9994           0
     26175 TIP3     2934     TIP3     H1       HT       0.417000       1.00800           0
     26176 TIP3     2934     TIP3     H2       HT       0.417000       1.00800           0
     26177 TIP3     2935     TIP3     OH2      OT      -0.834000       15.9994           0
     26178 TIP3     2935     TIP3     H1       HT       0.417000       1.00800           0
     26179 TIP3     2935     TIP3     H2       HT       0.417000       1.00800           0
     26180 TIP3     2936     TIP3     OH2      OT      -0.834000       15.9994           0
     26181 TIP3     2936     TIP3     H1       HT       0.417000       1.00800           0
     26182 TIP3     2936     TIP3     H2       HT       0.417000       1.00800           0
     26183 TIP3     2937     TIP3     OH2      OT      -0.834000       15.9994           0
     26184 TIP3     2937     TIP3     H1       HT       0.417000       1.00800           0
     26185 TIP3     2937     TIP3     H2       HT       0.417000       1.00800           0
     26186 TIP3     2938     TIP3     OH2      OT      -0.834000       15.9994           0
     26187 TIP3     2938     TIP3     H1       HT       0.417000       1.00800           0
     26188 TIP3     2938     TIP3     H2       HT       0.417000       1.00800           0
     26189 TIP3     2939     TIP3     OH2      OT      -0.834000       15.9994           0
     26190 TIP3     2939     TIP3     H1       HT       0.417000       1.00800           0
     26191 TIP3     2939     TIP3     H2       HT       0.417000       1.00800           0
     26192 TIP3     2940     TIP3     OH2      OT      -0.834000       15.9994           0
     26193 TIP3     2940     TIP3     H1       HT       0.417000       1.00800           0
     26194 TIP3     2940     TIP3     H2       HT       0.417000       1.00800           0
     26195 TIP3     2941     TIP3     OH2      OT      -0.834000       15.9994           0
     26196 TIP3     2941     TIP3     H1       HT       0.417000       1.00800           0
     26197 TIP3     2941     TIP3     H2       HT       0.417000       1.00800           0
     26198 TIP3     2942     TIP3     OH2      OT      -0.834000       15.9994           0
     26199 TIP3     2942     TIP3     H1       HT       0.417000       1.00800           0
     26200 TIP3     2942     TIP3     H2       HT       0.417000       1.00800           0
     26201 TIP3     2943     TIP3     OH2      OT      -0.834000       15.9994           0
     26202 TIP3     2943     TIP3     H1       HT       0.417000       1.00800           0
     26203 TIP3     2943     TIP3     H2       HT       0.417000       1.00800           0
     26204 TIP3     2944     TIP3     OH2      OT      -0.834000       15.9994           0
     26205 TIP3     2944     TIP3     H1       HT       0.417000       1.00800           0
     26206 TIP3     2944     TIP3     H2       HT       0.417000       1.00800           0
     26207 TIP3     2945     TIP3     OH2      OT      -0.834000       15.9994           0
     26208 TIP3     2945     TIP3     H1       HT       0.417000       1.00800           0
     26209 TIP3     2945     TIP3     H2       HT       0.417000       1.00800           0
     26210 TIP3     2946     TIP3     OH2      OT      -0.834000       15.9994           0
     26211 TIP3     2946     TIP3     H1       HT       0.417000       1.00800           0
     26212 TIP3     2946     TIP3     H2       HT       0.417000       1.00800           0
     26213 TIP3     2947     TIP3     OH2      OT      -0.834000       15.9994           0
     26214 TIP3     2947     TIP3     H1       HT       0.417000       1.00800           0
     26215 TIP3     2947     TIP3     H2       HT       0.417000       1.00800           0
     26216 TIP3     2948     TIP3     OH2      OT      -0.834000       15.9994           0
     26217 TIP3     2948     TIP3     H1       HT       0.417000       1.00800           0
     26218 TIP3     2948     TIP3     H2       HT       0.417000       1.00800           0
     26219 TIP3     2949     TIP3     OH2      OT      -0.834000       15.9994           0
     26220 TIP3     2949     TIP3     H1       HT       0.417000       1.00800           0
     26221 TIP3     2949     TIP3     H2       HT       0.417000       1.00800           0
     26222 TIP3     2950     TIP3     OH2      OT      -0.834000       15.9994           0
     26223 TIP3     2950     TIP3     H1       HT       0.417000       1.00800           0
     26224 TIP3     2950     TIP3     H2       HT       0.417000       1.00800           0
     26225 TIP3     2951     TIP3     OH2      OT      -0.834000       15.9994           0
     26226 TIP3     2951     TIP3     H1       HT       0.417000       1.00800           0
     26227 TIP3     2951     TIP3     H2       HT       0.417000       1.00800           0
     26228 TIP3     2952     TIP3     OH2      OT      -0.834000       15.9994           0
     26229 TIP3     2952     TIP3     H1       HT       0.417000       1.00800           0
     26230 TIP3     2952     TIP3     H2       HT       0.417000       1.00800           0
     26231 TIP3     2953     TIP3     OH2      OT      -0.834000       15.9994           0
     26232 TIP3     2953     TIP3     H1       HT       0.417000       1.00800           0
     26233 TIP3     2953     TIP3     H2       HT       0.417000       1.00800           0
     26234 TIP3     2954     TIP3     OH2      OT      -0.834000       15.9994           0
     26235 TIP3     2954     TIP3     H1       HT       0.417000       1.00800           0
     26236 TIP3     2954     TIP3     H2       HT       0.417000       1.00800           0
     26237 TIP3     2955     TIP3     OH2      OT      -0.834000       15.9994           0
     26238 TIP3     2955     TIP3     H1       HT       0.417000       1.00800           0
     26239 TIP3     2955     TIP3     H2       HT       0.417000       1.00800           0
     26240 TIP3     2956     TIP3     OH2      OT      -0.834000       15.9994           0
     26241 TIP3     2956     TIP3     H1       HT       0.417000       1.00800           0
     26242 TIP3     2956     TIP3     H2       HT       0.417000       1.00800           0
     26243 TIP3     2957     TIP3     OH2      OT      -0.834000       15.9994           0
     26244 TIP3     2957     TIP3     H1       HT       0.417000       1.00800           0
     26245 TIP3     2957     TIP3     H2       HT       0.417000       1.00800           0
     26246 TIP3     2958     TIP3     OH2      OT      -0.834000       15.9994           0
     26247 TIP3     2958     TIP3     H1       HT       0.417000       1.00800           0
     26248 TIP3     2958     TIP3     H2       HT       0.417000       1.00800           0
     26249 TIP3     2959     TIP3     OH2      OT      -0.834000       15.9994           0
     26250 TIP3     2959     TIP3     H1       HT       0.417000       1.00800           0
     26251 TIP3     2959     TIP3     H2       HT       0.417000       1.00800           0
     26252 TIP3     2960     TIP3     OH2      OT      -0.834000       15.9994           0
     26253 TIP3     2960     TIP3     H1       HT       0.417000       1.00800           0
     26254 TIP3     2960     TIP3     H2       HT       0.417000       1.00800           0
     26255 TIP3     2961     TIP3     OH2      OT      -0.834000       15.9994           0
     26256 TIP3     2961     TIP3     H1       HT       0.417000       1.00800           0
     26257 TIP3     2961     TIP3     H2       HT       0.417000       1.00800           0
     26258 TIP3     2962     TIP3     OH2      OT      -0.834000       15.9994           0
     26259 TIP3     2962     TIP3     H1       HT       0.417000       1.00800           0
     26260 TIP3     2962     TIP3     H2       HT       0.417000       1.00800           0
     26261 TIP3     2963     TIP3     OH2      OT      -0.834000       15.9994           0
     26262 TIP3     2963     TIP3     H1       HT       0.417000       1.00800           0
     26263 TIP3     2963     TIP3     H2       HT       0.417000       1.00800           0
     26264 TIP3     2964     TIP3     OH2      OT      -0.834000       15.9994           0
     26265 TIP3     2964     TIP3     H1       HT       0.417000       1.00800           0
     26266 TIP3     2964     TIP3     H2       HT       0.417000       1.00800           0
     26267 TIP3     2965     TIP3     OH2      OT      -0.834000       15.9994           0
     26268 TIP3     2965     TIP3     H1       HT       0.417000       1.00800           0
     26269 TIP3     2965     TIP3     H2       HT       0.417000       1.00800           0
     26270 TIP3     2966     TIP3     OH2      OT      -0.834000       15.9994           0
     26271 TIP3     2966     TIP3     H1       HT       0.417000       1.00800           0
     26272 TIP3     2966     TIP3     H2       HT       0.417000       1.00800           0
     26273 TIP3     2967     TIP3     OH2      OT      -0.834000       15.9994           0
     26274 TIP3     2967     TIP3     H1       HT       0.417000       1.00800           0
     26275 TIP3     2967     TIP3     H2       HT       0.417000       1.00800           0
     26276 TIP3     2968     TIP3     OH2      OT      -0.834000       15.9994           0
     26277 TIP3     2968     TIP3     H1       HT       0.417000       1.00800           0
     26278 TIP3     2968     TIP3     H2       HT       0.417000       1.00800           0
     26279 TIP3     2969     TIP3     OH2      OT      -0.834000       15.9994           0
     26280 TIP3     2969     TIP3     H1       HT       0.417000       1.00800           0
     26281 TIP3     2969     TIP3     H2       HT       0.417000       1.00800           0
     26282 TIP3     2970     TIP3     OH2      OT      -0.834000       15.9994           0
     26283 TIP3     2970     TIP3     H1       HT       0.417000       1.00800           0
     26284 TIP3     2970     TIP3     H2       HT       0.417000       1.00800           0
     26285 TIP3     2971     TIP3     OH2      OT      -0.834000       15.9994           0
     26286 TIP3     2971     TIP3     H1       HT       0.417000       1.00800           0
     26287 TIP3     2971     TIP3     H2       HT       0.417000       1.00800           0
     26288 TIP3     2972     TIP3     OH2      OT      -0.834000       15.9994           0
     26289 TIP3     2972     TIP3     H1       HT       0.417000       1.00800           0
     26290 TIP3     2972     TIP3     H2       HT       0.417000       1.00800           0
     26291 TIP3     2973     TIP3     OH2      OT      -0.834000       15.9994           0
     26292 TIP3     2973     TIP3     H1       HT       0.417000       1.00800           0
     26293 TIP3     2973     TIP3     H2       HT       0.417000       1.00800           0
     26294 TIP3     2974     TIP3     OH2      OT      -0.834000       15.9994           0
     26295 TIP3     2974     TIP3     H1       HT       0.417000       1.00800           0
     26296 TIP3     2974     TIP3     H2       HT       0.417000       1.00800           0
     26297 TIP3     2975     TIP3     OH2      OT      -0.834000       15.9994           0
     26298 TIP3     2975     TIP3     H1       HT       0.417000       1.00800           0
     26299 TIP3     2975     TIP3     H2       HT       0.417000       1.00800           0
     26300 TIP3     2976     TIP3     OH2      OT      -0.834000       15.9994           0
     26301 TIP3     2976     TIP3     H1       HT       0.417000       1.00800           0
     26302 TIP3     2976     TIP3     H2       HT       0.417000       1.00800           0
     26303 TIP3     2977     TIP3     OH2      OT      -0.834000       15.9994           0
     26304 TIP3     2977     TIP3     H1       HT       0.417000       1.00800           0
     26305 TIP3     2977     TIP3     H2       HT       0.417000       1.00800           0
     26306 TIP3     2978     TIP3     OH2      OT      -0.834000       15.9994           0
     26307 TIP3     2978     TIP3     H1       HT       0.417000       1.00800           0
     26308 TIP3     2978     TIP3     H2       HT       0.417000       1.00800           0
     26309 TIP3     2979     TIP3     OH2      OT      -0.834000       15.9994           0
     26310 TIP3     2979     TIP3     H1       HT       0.417000       1.00800           0
     26311 TIP3     2979     TIP3     H2       HT       0.417000       1.00800           0
     26312 TIP3     2980     TIP3     OH2      OT      -0.834000       15.9994           0
     26313 TIP3     2980     TIP3     H1       HT       0.417000       1.00800           0
     26314 TIP3     2980     TIP3     H2       HT       0.417000       1.00800           0
     26315 TIP3     2981     TIP3     OH2      OT      -0.834000       15.9994           0
     26316 TIP3     2981     TIP3     H1       HT       0.417000       1.00800           0
     26317 TIP3     2981     TIP3     H2       HT       0.417000       1.00800           0
     26318 TIP3     2982     TIP3     OH2      OT      -0.834000       15.9994           0
     26319 TIP3     2982     TIP3     H1       HT       0.417000       1.00800           0
     26320 TIP3     2982     TIP3     H2       HT       0.417000       1.00800           0
     26321 TIP3     2983     TIP3     OH2      OT      -0.834000       15.9994           0
     26322 TIP3     2983     TIP3     H1       HT       0.417000       1.00800           0
     26323 TIP3     2983     TIP3     H2       HT       0.417000       1.00800           0
     26324 TIP3     2984     TIP3     OH2      OT      -0.834000       15.9994           0
     26325 TIP3     2984     TIP3     H1       HT       0.417000       1.00800           0
     26326 TIP3     2984     TIP3     H2       HT       0.417000       1.00800           0
     26327 TIP3     2985     TIP3     OH2      OT      -0.834000       15.9994           0
     26328 TIP3     2985     TIP3     H1       HT       0.417000       1.00800           0
     26329 TIP3     2985     TIP3     H2       HT       0.417000       1.00800           0
     26330 TIP3     2986     TIP3     OH2      OT      -0.834000       15.9994           0
     26331 TIP3     2986     TIP3     H1       HT       0.417000       1.00800           0
     26332 TIP3     2986     TIP3     H2       HT       0.417000       1.00800           0
     26333 TIP3     2987     TIP3     OH2      OT      -0.834000       15.9994           0
     26334 TIP3     2987     TIP3     H1       HT       0.417000       1.00800           0
     26335 TIP3     2987     TIP3     H2       HT       0.417000       1.00800           0
     26336 TIP3     2988     TIP3     OH2      OT      -0.834000       15.9994           0
     26337 TIP3     2988     TIP3     H1       HT       0.417000       1.00800           0
     26338 TIP3     2988     TIP3     H2       HT       0.417000       1.00800           0
     26339 TIP3     2989     TIP3     OH2      OT      -0.834000       15.9994           0
     26340 TIP3     2989     TIP3     H1       HT       0.417000       1.00800           0
     26341 TIP3     2989     TIP3     H2       HT       0.417000       1.00800           0
     26342 TIP3     2990     TIP3     OH2      OT      -0.834000       15.9994           0
     26343 TIP3     2990     TIP3     H1       HT       0.417000       1.00800           0
     26344 TIP3     2990     TIP3     H2       HT       0.417000       1.00800           0
     26345 TIP3     2991     TIP3     OH2      OT      -0.834000       15.9994           0
     26346 TIP3     2991     TIP3     H1       HT       0.417000       1.00800           0
     26347 TIP3     2991     TIP3     H2       HT       0.417000       1.00800           0
     26348 TIP3     2992     TIP3     OH2      OT      -0.834000       15.9994           0
     26349 TIP3     2992     TIP3     H1       HT       0.417000       1.00800           0
     26350 TIP3     2992     TIP3     H2       HT       0.417000       1.00800           0
     26351 TIP3     2993     TIP3     OH2      OT      -0.834000       15.9994           0
     26352 TIP3     2993     TIP3     H1       HT       0.417000       1.00800           0
     26353 TIP3     2993     TIP3     H2       HT       0.417000       1.00800           0
     26354 TIP3     2994     TIP3     OH2      OT      -0.834000       15.9994           0
     26355 TIP3     2994     TIP3     H1       HT       0.417000       1.00800           0
     26356 TIP3     2994     TIP3     H2       HT       0.417000       1.00800           0
     26357 TIP3     2995     TIP3     OH2      OT      -0.834000       15.9994           0
     26358 TIP3     2995     TIP3     H1       HT       0.417000       1.00800           0
     26359 TIP3     2995     TIP3     H2       HT       0.417000       1.00800           0
     26360 TIP3     2996     TIP3     OH2      OT      -0.834000       15.9994           0
     26361 TIP3     2996     TIP3     H1       HT       0.417000       1.00800           0
     26362 TIP3     2996     TIP3     H2       HT       0.417000       1.00800           0
     26363 TIP3     2997     TIP3     OH2      OT      -0.834000       15.9994           0
     26364 TIP3     2997     TIP3     H1       HT       0.417000       1.00800           0
     26365 TIP3     2997     TIP3     H2       HT       0.417000       1.00800           0
     26366 TIP3     2998     TIP3     OH2      OT      -0.834000       15.9994           0
     26367 TIP3     2998     TIP3     H1       HT       0.417000       1.00800           0
     26368 TIP3     2998     TIP3     H2       HT       0.417000       1.00800           0
     26369 TIP3     2999     TIP3     OH2      OT      -0.834000       15.9994           0
     26370 TIP3     2999     TIP3     H1       HT       0.417000       1.00800           0
     26371 TIP3     2999     TIP3     H2       HT       0.417000       1.00800           0
     26372 TIP3     3000     TIP3     OH2      OT      -0.834000       15.9994           0
     26373 TIP3     3000     TIP3     H1       HT       0.417000       1.00800           0
     26374 TIP3     3000     TIP3     H2       HT       0.417000       1.00800           0
     26375 TIP3     3001     TIP3     OH2      OT      -0.834000       15.9994           0
     26376 TIP3     3001     TIP3     H1       HT       0.417000       1.00800           0
     26377 TIP3     3001     TIP3     H2       HT       0.417000       1.00800           0
     26378 TIP3     3002     TIP3     OH2      OT      -0.834000       15.9994           0
     26379 TIP3     3002     TIP3     H1       HT       0.417000       1.00800           0
     26380 TIP3     3002     TIP3     H2       HT       0.417000       1.00800           0
     26381 TIP3     3003     TIP3     OH2      OT      -0.834000       15.9994           0
     26382 TIP3     3003     TIP3     H1       HT       0.417000       1.00800           0
     26383 TIP3     3003     TIP3     H2       HT       0.417000       1.00800           0
     26384 TIP3     3004     TIP3     OH2      OT      -0.834000       15.9994           0
     26385 TIP3     3004     TIP3     H1       HT       0.417000       1.00800           0
     26386 TIP3     3004     TIP3     H2       HT       0.417000       1.00800           0
     26387 TIP3     3005     TIP3     OH2      OT      -0.834000       15.9994           0
     26388 TIP3     3005     TIP3     H1       HT       0.417000       1.00800           0
     26389 TIP3     3005     TIP3     H2       HT       0.417000       1.00800           0
     26390 TIP3     3006     TIP3     OH2      OT      -0.834000       15.9994           0
     26391 TIP3     3006     TIP3     H1       HT       0.417000       1.00800           0
     26392 TIP3     3006     TIP3     H2       HT       0.417000       1.00800           0
     26393 TIP3     3007     TIP3     OH2      OT      -0.834000       15.9994           0
     26394 TIP3     3007     TIP3     H1       HT       0.417000       1.00800           0
     26395 TIP3     3007     TIP3     H2       HT       0.417000       1.00800           0
     26396 TIP3     3008     TIP3     OH2      OT      -0.834000       15.9994           0
     26397 TIP3     3008     TIP3     H1       HT       0.417000       1.00800           0
     26398 TIP3     3008     TIP3     H2       HT       0.417000       1.00800           0
     26399 TIP3     3009     TIP3     OH2      OT      -0.834000       15.9994           0
     26400 TIP3     3009     TIP3     H1       HT       0.417000       1.00800           0
     26401 TIP3     3009     TIP3     H2       HT       0.417000       1.00800           0
     26402 TIP3     3010     TIP3     OH2      OT      -0.834000       15.9994           0
     26403 TIP3     3010     TIP3     H1       HT       0.417000       1.00800           0
     26404 TIP3     3010     TIP3     H2       HT       0.417000       1.00800           0
     26405 TIP3     3011     TIP3     OH2      OT      -0.834000       15.9994           0
     26406 TIP3     3011     TIP3     H1       HT       0.417000       1.00800           0
     26407 TIP3     3011     TIP3     H2       HT       0.417000       1.00800           0
     26408 TIP3     3012     TIP3     OH2      OT      -0.834000       15.9994           0
     26409 TIP3     3012     TIP3     H1       HT       0.417000       1.00800           0
     26410 TIP3     3012     TIP3     H2       HT       0.417000       1.00800           0
     26411 TIP3     3013     TIP3     OH2      OT      -0.834000       15.9994           0
     26412 TIP3     3013     TIP3     H1       HT       0.417000       1.00800           0
     26413 TIP3     3013     TIP3     H2       HT       0.417000       1.00800           0
     26414 TIP3     3014     TIP3     OH2      OT      -0.834000       15.9994           0
     26415 TIP3     3014     TIP3     H1       HT       0.417000       1.00800           0
     26416 TIP3     3014     TIP3     H2       HT       0.417000       1.00800           0
     26417 TIP3     3015     TIP3     OH2      OT      -0.834000       15.9994           0
     26418 TIP3     3015     TIP3     H1       HT       0.417000       1.00800           0
     26419 TIP3     3015     TIP3     H2       HT       0.417000       1.00800           0
     26420 TIP3     3016     TIP3     OH2      OT      -0.834000       15.9994           0
     26421 TIP3     3016     TIP3     H1       HT       0.417000       1.00800           0
     26422 TIP3     3016     TIP3     H2       HT       0.417000       1.00800           0
     26423 TIP3     3017     TIP3     OH2      OT      -0.834000       15.9994           0
     26424 TIP3     3017     TIP3     H1       HT       0.417000       1.00800           0
     26425 TIP3     3017     TIP3     H2       HT       0.417000       1.00800           0
     26426 TIP3     3018     TIP3     OH2      OT      -0.834000       15.9994           0
     26427 TIP3     3018     TIP3     H1       HT       0.417000       1.00800           0
     26428 TIP3     3018     TIP3     H2       HT       0.417000       1.00800           0
     26429 TIP3     3019     TIP3     OH2      OT      -0.834000       15.9994           0
     26430 TIP3     3019     TIP3     H1       HT       0.417000       1.00800           0
     26431 TIP3     3019     TIP3     H2       HT       0.417000       1.00800           0
     26432 TIP3     3020     TIP3     OH2      OT      -0.834000       15.9994           0
     26433 TIP3     3020     TIP3     H1       HT       0.417000       1.00800           0
     26434 TIP3     3020     TIP3     H2       HT       0.417000       1.00800           0
     26435 TIP3     3021     TIP3     OH2      OT      -0.834000       15.9994           0
     26436 TIP3     3021     TIP3     H1       HT       0.417000       1.00800           0
     26437 TIP3     3021     TIP3     H2       HT       0.417000       1.00800           0
     26438 TIP3     3022     TIP3     OH2      OT      -0.834000       15.9994           0
     26439 TIP3     3022     TIP3     H1       HT       0.417000       1.00800           0
     26440 TIP3     3022     TIP3     H2       HT       0.417000       1.00800           0
     26441 TIP3     3023     TIP3     OH2      OT      -0.834000       15.9994           0
     26442 TIP3     3023     TIP3     H1       HT       0.417000       1.00800           0
     26443 TIP3     3023     TIP3     H2       HT       0.417000       1.00800           0
     26444 TIP3     3024     TIP3     OH2      OT      -0.834000       15.9994           0
     26445 TIP3     3024     TIP3     H1       HT       0.417000       1.00800           0
     26446 TIP3     3024     TIP3     H2       HT       0.417000       1.00800           0
     26447 TIP3     3025     TIP3     OH2      OT      -0.834000       15.9994           0
     26448 TIP3     3025     TIP3     H1       HT       0.417000       1.00800           0
     26449 TIP3     3025     TIP3     H2       HT       0.417000       1.00800           0
     26450 TIP3     3026     TIP3     OH2      OT      -0.834000       15.9994           0
     26451 TIP3     3026     TIP3     H1       HT       0.417000       1.00800           0
     26452 TIP3     3026     TIP3     H2       HT       0.417000       1.00800           0
     26453 TIP3     3027     TIP3     OH2      OT      -0.834000       15.9994           0
     26454 TIP3     3027     TIP3     H1       HT       0.417000       1.00800           0
     26455 TIP3     3027     TIP3     H2       HT       0.417000       1.00800           0
     26456 TIP3     3028     TIP3     OH2      OT      -0.834000       15.9994           0
     26457 TIP3     3028     TIP3     H1       HT       0.417000       1.00800           0
     26458 TIP3     3028     TIP3     H2       HT       0.417000       1.00800           0
     26459 TIP3     3029     TIP3     OH2      OT      -0.834000       15.9994           0
     26460 TIP3     3029     TIP3     H1       HT       0.417000       1.00800           0
     26461 TIP3     3029     TIP3     H2       HT       0.417000       1.00800           0
     26462 TIP3     3030     TIP3     OH2      OT      -0.834000       15.9994           0
     26463 TIP3     3030     TIP3     H1       HT       0.417000       1.00800           0
     26464 TIP3     3030     TIP3     H2       HT       0.417000       1.00800           0
     26465 TIP3     3031     TIP3     OH2      OT      -0.834000       15.9994           0
     26466 TIP3     3031     TIP3     H1       HT       0.417000       1.00800           0
     26467 TIP3     3031     TIP3     H2       HT       0.417000       1.00800           0
     26468 TIP3     3032     TIP3     OH2      OT      -0.834000       15.9994           0
     26469 TIP3     3032     TIP3     H1       HT       0.417000       1.00800           0
     26470 TIP3     3032     TIP3     H2       HT       0.417000       1.00800           0
     26471 TIP3     3033     TIP3     OH2      OT      -0.834000       15.9994           0
     26472 TIP3     3033     TIP3     H1       HT       0.417000       1.00800           0
     26473 TIP3     3033     TIP3     H2       HT       0.417000       1.00800           0
     26474 TIP3     3034     TIP3     OH2      OT      -0.834000       15.9994           0
     26475 TIP3     3034     TIP3     H1       HT       0.417000       1.00800           0
     26476 TIP3     3034     TIP3     H2       HT       0.417000       1.00800           0
     26477 TIP3     3035     TIP3     OH2      OT      -0.834000       15.9994           0
     26478 TIP3     3035     TIP3     H1       HT       0.417000       1.00800           0
     26479 TIP3     3035     TIP3     H2       HT       0.417000       1.00800           0
     26480 TIP3     3036     TIP3     OH2      OT      -0.834000       15.9994           0
     26481 TIP3     3036     TIP3     H1       HT       0.417000       1.00800           0
     26482 TIP3     3036     TIP3     H2       HT       0.417000       1.00800           0
     26483 TIP3     3037     TIP3     OH2      OT      -0.834000       15.9994           0
     26484 TIP3     3037     TIP3     H1       HT       0.417000       1.00800           0
     26485 TIP3     3037     TIP3     H2       HT       0.417000       1.00800           0
     26486 TIP3     3038     TIP3     OH2      OT      -0.834000       15.9994           0
     26487 TIP3     3038     TIP3     H1       HT       0.417000       1.00800           0
     26488 TIP3     3038     TIP3     H2       HT       0.417000       1.00800           0
     26489 TIP3     3039     TIP3     OH2      OT      -0.834000       15.9994           0
     26490 TIP3     3039     TIP3     H1       HT       0.417000       1.00800           0
     26491 TIP3     3039     TIP3     H2       HT       0.417000       1.00800           0
     26492 TIP3     3040     TIP3     OH2      OT      -0.834000       15.9994           0
     26493 TIP3     3040     TIP3     H1       HT       0.417000       1.00800           0
     26494 TIP3     3040     TIP3     H2       HT       0.417000       1.00800           0
     26495 TIP3     3041     TIP3     OH2      OT      -0.834000       15.9994           0
     26496 TIP3     3041     TIP3     H1       HT       0.417000       1.00800           0
     26497 TIP3     3041     TIP3     H2       HT       0.417000       1.00800           0
     26498 TIP3     3042     TIP3     OH2      OT      -0.834000       15.9994           0
     26499 TIP3     3042     TIP3     H1       HT       0.417000       1.00800           0
     26500 TIP3     3042     TIP3     H2       HT       0.417000       1.00800           0
     26501 TIP3     3043     TIP3     OH2      OT      -0.834000       15.9994           0
     26502 TIP3     3043     TIP3     H1       HT       0.417000       1.00800           0
     26503 TIP3     3043     TIP3     H2       HT       0.417000       1.00800           0
     26504 TIP3     3044     TIP3     OH2      OT      -0.834000       15.9994           0
     26505 TIP3     3044     TIP3     H1       HT       0.417000       1.00800           0
     26506 TIP3     3044     TIP3     H2       HT       0.417000       1.00800           0
     26507 TIP3     3045     TIP3     OH2      OT      -0.834000       15.9994           0
     26508 TIP3     3045     TIP3     H1       HT       0.417000       1.00800           0
     26509 TIP3     3045     TIP3     H2       HT       0.417000       1.00800           0
     26510 TIP3     3046     TIP3     OH2      OT      -0.834000       15.9994           0
     26511 TIP3     3046     TIP3     H1       HT       0.417000       1.00800           0
     26512 TIP3     3046     TIP3     H2       HT       0.417000       1.00800           0
     26513 TIP3     3047     TIP3     OH2      OT      -0.834000       15.9994           0
     26514 TIP3     3047     TIP3     H1       HT       0.417000       1.00800           0
     26515 TIP3     3047     TIP3     H2       HT       0.417000       1.00800           0
     26516 TIP3     3048     TIP3     OH2      OT      -0.834000       15.9994           0
     26517 TIP3     3048     TIP3     H1       HT       0.417000       1.00800           0
     26518 TIP3     3048     TIP3     H2       HT       0.417000       1.00800           0
     26519 TIP3     3049     TIP3     OH2      OT      -0.834000       15.9994           0
     26520 TIP3     3049     TIP3     H1       HT       0.417000       1.00800           0
     26521 TIP3     3049     TIP3     H2       HT       0.417000       1.00800           0
     26522 TIP3     3050     TIP3     OH2      OT      -0.834000       15.9994           0
     26523 TIP3     3050     TIP3     H1       HT       0.417000       1.00800           0
     26524 TIP3     3050     TIP3     H2       HT       0.417000       1.00800           0
     26525 TIP3     3051     TIP3     OH2      OT      -0.834000       15.9994           0
     26526 TIP3     3051     TIP3     H1       HT       0.417000       1.00800           0
     26527 TIP3     3051     TIP3     H2       HT       0.417000       1.00800           0
     26528 TIP3     3052     TIP3     OH2      OT      -0.834000       15.9994           0
     26529 TIP3     3052     TIP3     H1       HT       0.417000       1.00800           0
     26530 TIP3     3052     TIP3     H2       HT       0.417000       1.00800           0
     26531 TIP3     3053     TIP3     OH2      OT      -0.834000       15.9994           0
     26532 TIP3     3053     TIP3     H1       HT       0.417000       1.00800           0
     26533 TIP3     3053     TIP3     H2       HT       0.417000       1.00800           0
     26534 TIP3     3054     TIP3     OH2      OT      -0.834000       15.9994           0
     26535 TIP3     3054     TIP3     H1       HT       0.417000       1.00800           0
     26536 TIP3     3054     TIP3     H2       HT       0.417000       1.00800           0
     26537 TIP3     3055     TIP3     OH2      OT      -0.834000       15.9994           0
     26538 TIP3     3055     TIP3     H1       HT       0.417000       1.00800           0
     26539 TIP3     3055     TIP3     H2       HT       0.417000       1.00800           0
     26540 TIP3     3056     TIP3     OH2      OT      -0.834000       15.9994           0
     26541 TIP3     3056     TIP3     H1       HT       0.417000       1.00800           0
     26542 TIP3     3056     TIP3     H2       HT       0.417000       1.00800           0
     26543 TIP3     3057     TIP3     OH2      OT      -0.834000       15.9994           0
     26544 TIP3     3057     TIP3     H1       HT       0.417000       1.00800           0
     26545 TIP3     3057     TIP3     H2       HT       0.417000       1.00800           0
     26546 TIP3     3058     TIP3     OH2      OT      -0.834000       15.9994           0
     26547 TIP3     3058     TIP3     H1       HT       0.417000       1.00800           0
     26548 TIP3     3058     TIP3     H2       HT       0.417000       1.00800           0
     26549 TIP3     3059     TIP3     OH2      OT      -0.834000       15.9994           0
     26550 TIP3     3059     TIP3     H1       HT       0.417000       1.00800           0
     26551 TIP3     3059     TIP3     H2       HT       0.417000       1.00800           0
     26552 TIP3     3060     TIP3     OH2      OT      -0.834000       15.9994           0
     26553 TIP3     3060     TIP3     H1       HT       0.417000       1.00800           0
     26554 TIP3     3060     TIP3     H2       HT       0.417000       1.00800           0
     26555 TIP3     3061     TIP3     OH2      OT      -0.834000       15.9994           0
     26556 TIP3     3061     TIP3     H1       HT       0.417000       1.00800           0
     26557 TIP3     3061     TIP3     H2       HT       0.417000       1.00800           0
     26558 TIP3     3062     TIP3     OH2      OT      -0.834000       15.9994           0
     26559 TIP3     3062     TIP3     H1       HT       0.417000       1.00800           0
     26560 TIP3     3062     TIP3     H2       HT       0.417000       1.00800           0
     26561 TIP3     3063     TIP3     OH2      OT      -0.834000       15.9994           0
     26562 TIP3     3063     TIP3     H1       HT       0.417000       1.00800           0
     26563 TIP3     3063     TIP3     H2       HT       0.417000       1.00800           0
     26564 TIP3     3064     TIP3     OH2      OT      -0.834000       15.9994           0
     26565 TIP3     3064     TIP3     H1       HT       0.417000       1.00800           0
     26566 TIP3     3064     TIP3     H2       HT       0.417000       1.00800           0
     26567 TIP3     3065     TIP3     OH2      OT      -0.834000       15.9994           0
     26568 TIP3     3065     TIP3     H1       HT       0.417000       1.00800           0
     26569 TIP3     3065     TIP3     H2       HT       0.417000       1.00800           0
     26570 TIP3     3066     TIP3     OH2      OT      -0.834000       15.9994           0
     26571 TIP3     3066     TIP3     H1       HT       0.417000       1.00800           0
     26572 TIP3     3066     TIP3     H2       HT       0.417000       1.00800           0
     26573 TIP3     3067     TIP3     OH2      OT      -0.834000       15.9994           0
     26574 TIP3     3067     TIP3     H1       HT       0.417000       1.00800           0
     26575 TIP3     3067     TIP3     H2       HT       0.417000       1.00800           0
     26576 TIP3     3068     TIP3     OH2      OT      -0.834000       15.9994           0
     26577 TIP3     3068     TIP3     H1       HT       0.417000       1.00800           0
     26578 TIP3     3068     TIP3     H2       HT       0.417000       1.00800           0
     26579 TIP3     3069     TIP3     OH2      OT      -0.834000       15.9994           0
     26580 TIP3     3069     TIP3     H1       HT       0.417000       1.00800           0
     26581 TIP3     3069     TIP3     H2       HT       0.417000       1.00800           0
     26582 TIP3     3070     TIP3     OH2      OT      -0.834000       15.9994           0
     26583 TIP3     3070     TIP3     H1       HT       0.417000       1.00800           0
     26584 TIP3     3070     TIP3     H2       HT       0.417000       1.00800           0
     26585 TIP3     3071     TIP3     OH2      OT      -0.834000       15.9994           0
     26586 TIP3     3071     TIP3     H1       HT       0.417000       1.00800           0
     26587 TIP3     3071     TIP3     H2       HT       0.417000       1.00800           0
     26588 TIP3     3072     TIP3     OH2      OT      -0.834000       15.9994           0
     26589 TIP3     3072     TIP3     H1       HT       0.417000       1.00800           0
     26590 TIP3     3072     TIP3     H2       HT       0.417000       1.00800           0
     26591 TIP3     3073     TIP3     OH2      OT      -0.834000       15.9994           0
     26592 TIP3     3073     TIP3     H1       HT       0.417000       1.00800           0
     26593 TIP3     3073     TIP3     H2       HT       0.417000       1.00800           0
     26594 TIP3     3074     TIP3     OH2      OT      -0.834000       15.9994           0
     26595 TIP3     3074     TIP3     H1       HT       0.417000       1.00800           0
     26596 TIP3     3074     TIP3     H2       HT       0.417000       1.00800           0
     26597 TIP3     3075     TIP3     OH2      OT      -0.834000       15.9994           0
     26598 TIP3     3075     TIP3     H1       HT       0.417000       1.00800           0
     26599 TIP3     3075     TIP3     H2       HT       0.417000       1.00800           0
     26600 TIP3     3076     TIP3     OH2      OT      -0.834000       15.9994           0
     26601 TIP3     3076     TIP3     H1       HT       0.417000       1.00800           0
     26602 TIP3     3076     TIP3     H2       HT       0.417000       1.00800           0
     26603 TIP3     3077     TIP3     OH2      OT      -0.834000       15.9994           0
     26604 TIP3     3077     TIP3     H1       HT       0.417000       1.00800           0
     26605 TIP3     3077     TIP3     H2       HT       0.417000       1.00800           0
     26606 TIP3     3078     TIP3     OH2      OT      -0.834000       15.9994           0
     26607 TIP3     3078     TIP3     H1       HT       0.417000       1.00800           0
     26608 TIP3     3078     TIP3     H2       HT       0.417000       1.00800           0
     26609 TIP3     3079     TIP3     OH2      OT      -0.834000       15.9994           0
     26610 TIP3     3079     TIP3     H1       HT       0.417000       1.00800           0
     26611 TIP3     3079     TIP3     H2       HT       0.417000       1.00800           0
     26612 TIP3     3080     TIP3     OH2      OT      -0.834000       15.9994           0
     26613 TIP3     3080     TIP3     H1       HT       0.417000       1.00800           0
     26614 TIP3     3080     TIP3     H2       HT       0.417000       1.00800           0
     26615 TIP3     3081     TIP3     OH2      OT      -0.834000       15.9994           0
     26616 TIP3     3081     TIP3     H1       HT       0.417000       1.00800           0
     26617 TIP3     3081     TIP3     H2       HT       0.417000       1.00800           0
     26618 TIP3     3082     TIP3     OH2      OT      -0.834000       15.9994           0
     26619 TIP3     3082     TIP3     H1       HT       0.417000       1.00800           0
     26620 TIP3     3082     TIP3     H2       HT       0.417000       1.00800           0
     26621 TIP3     3083     TIP3     OH2      OT      -0.834000       15.9994           0
     26622 TIP3     3083     TIP3     H1       HT       0.417000       1.00800           0
     26623 TIP3     3083     TIP3     H2       HT       0.417000       1.00800           0
     26624 TIP3     3084     TIP3     OH2      OT      -0.834000       15.9994           0
     26625 TIP3     3084     TIP3     H1       HT       0.417000       1.00800           0
     26626 TIP3     3084     TIP3     H2       HT       0.417000       1.00800           0
     26627 TIP3     3085     TIP3     OH2      OT      -0.834000       15.9994           0
     26628 TIP3     3085     TIP3     H1       HT       0.417000       1.00800           0
     26629 TIP3     3085     TIP3     H2       HT       0.417000       1.00800           0
     26630 TIP3     3086     TIP3     OH2      OT      -0.834000       15.9994           0
     26631 TIP3     3086     TIP3     H1       HT       0.417000       1.00800           0
     26632 TIP3     3086     TIP3     H2       HT       0.417000       1.00800           0
     26633 TIP3     3087     TIP3     OH2      OT      -0.834000       15.9994           0
     26634 TIP3     3087     TIP3     H1       HT       0.417000       1.00800           0
     26635 TIP3     3087     TIP3     H2       HT       0.417000       1.00800           0
     26636 TIP3     3088     TIP3     OH2      OT      -0.834000       15.9994           0
     26637 TIP3     3088     TIP3     H1       HT       0.417000       1.00800           0
     26638 TIP3     3088     TIP3     H2       HT       0.417000       1.00800           0
     26639 TIP3     3089     TIP3     OH2      OT      -0.834000       15.9994           0
     26640 TIP3     3089     TIP3     H1       HT       0.417000       1.00800           0
     26641 TIP3     3089     TIP3     H2       HT       0.417000       1.00800           0
     26642 TIP3     3090     TIP3     OH2      OT      -0.834000       15.9994           0
     26643 TIP3     3090     TIP3     H1       HT       0.417000       1.00800           0
     26644 TIP3     3090     TIP3     H2       HT       0.417000       1.00800           0
     26645 TIP3     3091     TIP3     OH2      OT      -0.834000       15.9994           0
     26646 TIP3     3091     TIP3     H1       HT       0.417000       1.00800           0
     26647 TIP3     3091     TIP3     H2       HT       0.417000       1.00800           0
     26648 TIP3     3092     TIP3     OH2      OT      -0.834000       15.9994           0
     26649 TIP3     3092     TIP3     H1       HT       0.417000       1.00800           0
     26650 TIP3     3092     TIP3     H2       HT       0.417000       1.00800           0
     26651 TIP3     3093     TIP3     OH2      OT      -0.834000       15.9994           0
     26652 TIP3     3093     TIP3     H1       HT       0.417000       1.00800           0
     26653 TIP3     3093     TIP3     H2       HT       0.417000       1.00800           0
     26654 TIP3     3094     TIP3     OH2      OT      -0.834000       15.9994           0
     26655 TIP3     3094     TIP3     H1       HT       0.417000       1.00800           0
     26656 TIP3     3094     TIP3     H2       HT       0.417000       1.00800           0
     26657 TIP3     3095     TIP3     OH2      OT      -0.834000       15.9994           0
     26658 TIP3     3095     TIP3     H1       HT       0.417000       1.00800           0
     26659 TIP3     3095     TIP3     H2       HT       0.417000       1.00800           0
     26660 TIP3     3096     TIP3     OH2      OT      -0.834000       15.9994           0
     26661 TIP3     3096     TIP3     H1       HT       0.417000       1.00800           0
     26662 TIP3     3096     TIP3     H2       HT       0.417000       1.00800           0
     26663 TIP3     3097     TIP3     OH2      OT      -0.834000       15.9994           0
     26664 TIP3     3097     TIP3     H1       HT       0.417000       1.00800           0
     26665 TIP3     3097     TIP3     H2       HT       0.417000       1.00800           0
     26666 TIP3     3098     TIP3     OH2      OT      -0.834000       15.9994           0
     26667 TIP3     3098     TIP3     H1       HT       0.417000       1.00800           0
     26668 TIP3     3098     TIP3     H2       HT       0.417000       1.00800           0
     26669 TIP3     3099     TIP3     OH2      OT      -0.834000       15.9994           0
     26670 TIP3     3099     TIP3     H1       HT       0.417000       1.00800           0
     26671 TIP3     3099     TIP3     H2       HT       0.417000       1.00800           0
     26672 TIP3     3100     TIP3     OH2      OT      -0.834000       15.9994           0
     26673 TIP3     3100     TIP3     H1       HT       0.417000       1.00800           0
     26674 TIP3     3100     TIP3     H2       HT       0.417000       1.00800           0
     26675 TIP3     3101     TIP3     OH2      OT      -0.834000       15.9994           0
     26676 TIP3     3101     TIP3     H1       HT       0.417000       1.00800           0
     26677 TIP3     3101     TIP3     H2       HT       0.417000       1.00800           0
     26678 TIP3     3102     TIP3     OH2      OT      -0.834000       15.9994           0
     26679 TIP3     3102     TIP3     H1       HT       0.417000       1.00800           0
     26680 TIP3     3102     TIP3     H2       HT       0.417000       1.00800           0
     26681 TIP3     3103     TIP3     OH2      OT      -0.834000       15.9994           0
     26682 TIP3     3103     TIP3     H1       HT       0.417000       1.00800           0
     26683 TIP3     3103     TIP3     H2       HT       0.417000       1.00800           0
     26684 TIP3     3104     TIP3     OH2      OT      -0.834000       15.9994           0
     26685 TIP3     3104     TIP3     H1       HT       0.417000       1.00800           0
     26686 TIP3     3104     TIP3     H2       HT       0.417000       1.00800           0
     26687 TIP3     3105     TIP3     OH2      OT      -0.834000       15.9994           0
     26688 TIP3     3105     TIP3     H1       HT       0.417000       1.00800           0
     26689 TIP3     3105     TIP3     H2       HT       0.417000       1.00800           0
     26690 TIP3     3106     TIP3     OH2      OT      -0.834000       15.9994           0
     26691 TIP3     3106     TIP3     H1       HT       0.417000       1.00800           0
     26692 TIP3     3106     TIP3     H2       HT       0.417000       1.00800           0
     26693 TIP3     3107     TIP3     OH2      OT      -0.834000       15.9994           0
     26694 TIP3     3107     TIP3     H1       HT       0.417000       1.00800           0
     26695 TIP3     3107     TIP3     H2       HT       0.417000       1.00800           0
     26696 TIP3     3108     TIP3     OH2      OT      -0.834000       15.9994           0
     26697 TIP3     3108     TIP3     H1       HT       0.417000       1.00800           0
     26698 TIP3     3108     TIP3     H2       HT       0.417000       1.00800           0
     26699 TIP3     3109     TIP3     OH2      OT      -0.834000       15.9994           0
     26700 TIP3     3109     TIP3     H1       HT       0.417000       1.00800           0
     26701 TIP3     3109     TIP3     H2       HT       0.417000       1.00800           0
     26702 TIP3     3110     TIP3     OH2      OT      -0.834000       15.9994           0
     26703 TIP3     3110     TIP3     H1       HT       0.417000       1.00800           0
     26704 TIP3     3110     TIP3     H2       HT       0.417000       1.00800           0
     26705 TIP3     3111     TIP3     OH2      OT      -0.834000       15.9994           0
     26706 TIP3     3111     TIP3     H1       HT       0.417000       1.00800           0
     26707 TIP3     3111     TIP3     H2       HT       0.417000       1.00800           0
     26708 TIP3     3112     TIP3     OH2      OT      -0.834000       15.9994           0
     26709 TIP3     3112     TIP3     H1       HT       0.417000       1.00800           0
     26710 TIP3     3112     TIP3     H2       HT       0.417000       1.00800           0
     26711 TIP3     3113     TIP3     OH2      OT      -0.834000       15.9994           0
     26712 TIP3     3113     TIP3     H1       HT       0.417000       1.00800           0
     26713 TIP3     3113     TIP3     H2       HT       0.417000       1.00800           0
     26714 TIP3     3114     TIP3     OH2      OT      -0.834000       15.9994           0
     26715 TIP3     3114     TIP3     H1       HT       0.417000       1.00800           0
     26716 TIP3     3114     TIP3     H2       HT       0.417000       1.00800           0
     26717 TIP3     3115     TIP3     OH2      OT      -0.834000       15.9994           0
     26718 TIP3     3115     TIP3     H1       HT       0.417000       1.00800           0
     26719 TIP3     3115     TIP3     H2       HT       0.417000       1.00800           0
     26720 TIP3     3116     TIP3     OH2      OT      -0.834000       15.9994           0
     26721 TIP3     3116     TIP3     H1       HT       0.417000       1.00800           0
     26722 TIP3     3116     TIP3     H2       HT       0.417000       1.00800           0
     26723 TIP3     3117     TIP3     OH2      OT      -0.834000       15.9994           0
     26724 TIP3     3117     TIP3     H1       HT       0.417000       1.00800           0
     26725 TIP3     3117     TIP3     H2       HT       0.417000       1.00800           0
     26726 TIP3     3118     TIP3     OH2      OT      -0.834000       15.9994           0
     26727 TIP3     3118     TIP3     H1       HT       0.417000       1.00800           0
     26728 TIP3     3118     TIP3     H2       HT       0.417000       1.00800           0
     26729 TIP3     3119     TIP3     OH2      OT      -0.834000       15.9994           0
     26730 TIP3     3119     TIP3     H1       HT       0.417000       1.00800           0
     26731 TIP3     3119     TIP3     H2       HT       0.417000       1.00800           0
     26732 TIP3     3120     TIP3     OH2      OT      -0.834000       15.9994           0
     26733 TIP3     3120     TIP3     H1       HT       0.417000       1.00800           0
     26734 TIP3     3120     TIP3     H2       HT       0.417000       1.00800           0
     26735 TIP3     3121     TIP3     OH2      OT      -0.834000       15.9994           0
     26736 TIP3     3121     TIP3     H1       HT       0.417000       1.00800           0
     26737 TIP3     3121     TIP3     H2       HT       0.417000       1.00800           0
     26738 TIP3     3122     TIP3     OH2      OT      -0.834000       15.9994           0
     26739 TIP3     3122     TIP3     H1       HT       0.417000       1.00800           0
     26740 TIP3     3122     TIP3     H2       HT       0.417000       1.00800           0
     26741 TIP3     3123     TIP3     OH2      OT      -0.834000       15.9994           0
     26742 TIP3     3123     TIP3     H1       HT       0.417000       1.00800           0
     26743 TIP3     3123     TIP3     H2       HT       0.417000       1.00800           0
     26744 TIP3     3124     TIP3     OH2      OT      -0.834000       15.9994           0
     26745 TIP3     3124     TIP3     H1       HT       0.417000       1.00800           0
     26746 TIP3     3124     TIP3     H2       HT       0.417000       1.00800           0
     26747 TIP3     3125     TIP3     OH2      OT      -0.834000       15.9994           0
     26748 TIP3     3125     TIP3     H1       HT       0.417000       1.00800           0
     26749 TIP3     3125     TIP3     H2       HT       0.417000       1.00800           0
     26750 TIP3     3126     TIP3     OH2      OT      -0.834000       15.9994           0
     26751 TIP3     3126     TIP3     H1       HT       0.417000       1.00800           0
     26752 TIP3     3126     TIP3     H2       HT       0.417000       1.00800           0
     26753 TIP3     3127     TIP3     OH2      OT      -0.834000       15.9994           0
     26754 TIP3     3127     TIP3     H1       HT       0.417000       1.00800           0
     26755 TIP3     3127     TIP3     H2       HT       0.417000       1.00800           0
     26756 TIP3     3128     TIP3     OH2      OT      -0.834000       15.9994           0
     26757 TIP3     3128     TIP3     H1       HT       0.417000       1.00800           0
     26758 TIP3     3128     TIP3     H2       HT       0.417000       1.00800           0
     26759 TIP3     3129     TIP3     OH2      OT      -0.834000       15.9994           0
     26760 TIP3     3129     TIP3     H1       HT       0.417000       1.00800           0
     26761 TIP3     3129     TIP3     H2       HT       0.417000       1.00800           0
     26762 TIP3     3130     TIP3     OH2      OT      -0.834000       15.9994           0
     26763 TIP3     3130     TIP3     H1       HT       0.417000       1.00800           0
     26764 TIP3     3130     TIP3     H2       HT       0.417000       1.00800           0
     26765 TIP3     3131     TIP3     OH2      OT      -0.834000       15.9994           0
     26766 TIP3     3131     TIP3     H1       HT       0.417000       1.00800           0
     26767 TIP3     3131     TIP3     H2       HT       0.417000       1.00800           0
     26768 TIP3     3132     TIP3     OH2      OT      -0.834000       15.9994           0
     26769 TIP3     3132     TIP3     H1       HT       0.417000       1.00800           0
     26770 TIP3     3132     TIP3     H2       HT       0.417000       1.00800           0
     26771 TIP3     3133     TIP3     OH2      OT      -0.834000       15.9994           0
     26772 TIP3     3133     TIP3     H1       HT       0.417000       1.00800           0
     26773 TIP3     3133     TIP3     H2       HT       0.417000       1.00800           0
     26774 TIP3     3134     TIP3     OH2      OT      -0.834000       15.9994           0
     26775 TIP3     3134     TIP3     H1       HT       0.417000       1.00800           0
     26776 TIP3     3134     TIP3     H2       HT       0.417000       1.00800           0
     26777 TIP3     3135     TIP3     OH2      OT      -0.834000       15.9994           0
     26778 TIP3     3135     TIP3     H1       HT       0.417000       1.00800           0
     26779 TIP3     3135     TIP3     H2       HT       0.417000       1.00800           0
     26780 TIP3     3136     TIP3     OH2      OT      -0.834000       15.9994           0
     26781 TIP3     3136     TIP3     H1       HT       0.417000       1.00800           0
     26782 TIP3     3136     TIP3     H2       HT       0.417000       1.00800           0
     26783 TIP3     3137     TIP3     OH2      OT      -0.834000       15.9994           0
     26784 TIP3     3137     TIP3     H1       HT       0.417000       1.00800           0
     26785 TIP3     3137     TIP3     H2       HT       0.417000       1.00800           0
     26786 TIP3     3138     TIP3     OH2      OT      -0.834000       15.9994           0
     26787 TIP3     3138     TIP3     H1       HT       0.417000       1.00800           0
     26788 TIP3     3138     TIP3     H2       HT       0.417000       1.00800           0
     26789 TIP3     3139     TIP3     OH2      OT      -0.834000       15.9994           0
     26790 TIP3     3139     TIP3     H1       HT       0.417000       1.00800           0
     26791 TIP3     3139     TIP3     H2       HT       0.417000       1.00800           0
     26792 TIP3     3140     TIP3     OH2      OT      -0.834000       15.9994           0
     26793 TIP3     3140     TIP3     H1       HT       0.417000       1.00800           0
     26794 TIP3     3140     TIP3     H2       HT       0.417000       1.00800           0
     26795 TIP3     3141     TIP3     OH2      OT      -0.834000       15.9994           0
     26796 TIP3     3141     TIP3     H1       HT       0.417000       1.00800           0
     26797 TIP3     3141     TIP3     H2       HT       0.417000       1.00800           0
     26798 TIP3     3142     TIP3     OH2      OT      -0.834000       15.9994           0
     26799 TIP3     3142     TIP3     H1       HT       0.417000       1.00800           0
     26800 TIP3     3142     TIP3     H2       HT       0.417000       1.00800           0
     26801 TIP3     3143     TIP3     OH2      OT      -0.834000       15.9994           0
     26802 TIP3     3143     TIP3     H1       HT       0.417000       1.00800           0
     26803 TIP3     3143     TIP3     H2       HT       0.417000       1.00800           0
     26804 TIP3     3144     TIP3     OH2      OT      -0.834000       15.9994           0
     26805 TIP3     3144     TIP3     H1       HT       0.417000       1.00800           0
     26806 TIP3     3144     TIP3     H2       HT       0.417000       1.00800           0
     26807 TIP3     3145     TIP3     OH2      OT      -0.834000       15.9994           0
     26808 TIP3     3145     TIP3     H1       HT       0.417000       1.00800           0
     26809 TIP3     3145     TIP3     H2       HT       0.417000       1.00800           0
     26810 TIP3     3146     TIP3     OH2      OT      -0.834000       15.9994           0
     26811 TIP3     3146     TIP3     H1       HT       0.417000       1.00800           0
     26812 TIP3     3146     TIP3     H2       HT       0.417000       1.00800           0
     26813 TIP3     3147     TIP3     OH2      OT      -0.834000       15.9994           0
     26814 TIP3     3147     TIP3     H1       HT       0.417000       1.00800           0
     26815 TIP3     3147     TIP3     H2       HT       0.417000       1.00800           0
     26816 TIP3     3148     TIP3     OH2      OT      -0.834000       15.9994           0
     26817 TIP3     3148     TIP3     H1       HT       0.417000       1.00800           0
     26818 TIP3     3148     TIP3     H2       HT       0.417000       1.00800           0
     26819 TIP3     3149     TIP3     OH2      OT      -0.834000       15.9994           0
     26820 TIP3     3149     TIP3     H1       HT       0.417000       1.00800           0
     26821 TIP3     3149     TIP3     H2       HT       0.417000       1.00800           0
     26822 TIP3     3150     TIP3     OH2      OT      -0.834000       15.9994           0
     26823 TIP3     3150     TIP3     H1       HT       0.417000       1.00800           0
     26824 TIP3     3150     TIP3     H2       HT       0.417000       1.00800           0
     26825 TIP3     3151     TIP3     OH2      OT      -0.834000       15.9994           0
     26826 TIP3     3151     TIP3     H1       HT       0.417000       1.00800           0
     26827 TIP3     3151     TIP3     H2       HT       0.417000       1.00800           0
     26828 TIP3     3152     TIP3     OH2      OT      -0.834000       15.9994           0
     26829 TIP3     3152     TIP3     H1       HT       0.417000       1.00800           0
     26830 TIP3     3152     TIP3     H2       HT       0.417000       1.00800           0
     26831 TIP3     3153     TIP3     OH2      OT      -0.834000       15.9994           0
     26832 TIP3     3153     TIP3     H1       HT       0.417000       1.00800           0
     26833 TIP3     3153     TIP3     H2       HT       0.417000       1.00800           0
     26834 TIP3     3154     TIP3     OH2      OT      -0.834000       15.9994           0
     26835 TIP3     3154     TIP3     H1       HT       0.417000       1.00800           0
     26836 TIP3     3154     TIP3     H2       HT       0.417000       1.00800           0
     26837 TIP3     3155     TIP3     OH2      OT      -0.834000       15.9994           0
     26838 TIP3     3155     TIP3     H1       HT       0.417000       1.00800           0
     26839 TIP3     3155     TIP3     H2       HT       0.417000       1.00800           0
     26840 TIP3     3156     TIP3     OH2      OT      -0.834000       15.9994           0
     26841 TIP3     3156     TIP3     H1       HT       0.417000       1.00800           0
     26842 TIP3     3156     TIP3     H2       HT       0.417000       1.00800           0
     26843 TIP3     3157     TIP3     OH2      OT      -0.834000       15.9994           0
     26844 TIP3     3157     TIP3     H1       HT       0.417000       1.00800           0
     26845 TIP3     3157     TIP3     H2       HT       0.417000       1.00800           0
     26846 TIP3     3158     TIP3     OH2      OT      -0.834000       15.9994           0
     26847 TIP3     3158     TIP3     H1       HT       0.417000       1.00800           0
     26848 TIP3     3158     TIP3     H2       HT       0.417000       1.00800           0
     26849 TIP3     3159     TIP3     OH2      OT      -0.834000       15.9994           0
     26850 TIP3     3159     TIP3     H1       HT       0.417000       1.00800           0
     26851 TIP3     3159     TIP3     H2       HT       0.417000       1.00800           0
     26852 TIP3     3160     TIP3     OH2      OT      -0.834000       15.9994           0
     26853 TIP3     3160     TIP3     H1       HT       0.417000       1.00800           0
     26854 TIP3     3160     TIP3     H2       HT       0.417000       1.00800           0
     26855 TIP3     3161     TIP3     OH2      OT      -0.834000       15.9994           0
     26856 TIP3     3161     TIP3     H1       HT       0.417000       1.00800           0
     26857 TIP3     3161     TIP3     H2       HT       0.417000       1.00800           0
     26858 TIP3     3162     TIP3     OH2      OT      -0.834000       15.9994           0
     26859 TIP3     3162     TIP3     H1       HT       0.417000       1.00800           0
     26860 TIP3     3162     TIP3     H2       HT       0.417000       1.00800           0
     26861 TIP3     3163     TIP3     OH2      OT      -0.834000       15.9994           0
     26862 TIP3     3163     TIP3     H1       HT       0.417000       1.00800           0
     26863 TIP3     3163     TIP3     H2       HT       0.417000       1.00800           0
     26864 TIP3     3164     TIP3     OH2      OT      -0.834000       15.9994           0
     26865 TIP3     3164     TIP3     H1       HT       0.417000       1.00800           0
     26866 TIP3     3164     TIP3     H2       HT       0.417000       1.00800           0
     26867 TIP3     3165     TIP3     OH2      OT      -0.834000       15.9994           0
     26868 TIP3     3165     TIP3     H1       HT       0.417000       1.00800           0
     26869 TIP3     3165     TIP3     H2       HT       0.417000       1.00800           0
     26870 TIP3     3166     TIP3     OH2      OT      -0.834000       15.9994           0
     26871 TIP3     3166     TIP3     H1       HT       0.417000       1.00800           0
     26872 TIP3     3166     TIP3     H2       HT       0.417000       1.00800           0
     26873 TIP3     3167     TIP3     OH2      OT      -0.834000       15.9994           0
     26874 TIP3     3167     TIP3     H1       HT       0.417000       1.00800           0
     26875 TIP3     3167     TIP3     H2       HT       0.417000       1.00800           0
     26876 TIP3     3168     TIP3     OH2      OT      -0.834000       15.9994           0
     26877 TIP3     3168     TIP3     H1       HT       0.417000       1.00800           0
     26878 TIP3     3168     TIP3     H2       HT       0.417000       1.00800           0
     26879 TIP3     3169     TIP3     OH2      OT      -0.834000       15.9994           0
     26880 TIP3     3169     TIP3     H1       HT       0.417000       1.00800           0
     26881 TIP3     3169     TIP3     H2       HT       0.417000       1.00800           0
     26882 TIP3     3170     TIP3     OH2      OT      -0.834000       15.9994           0
     26883 TIP3     3170     TIP3     H1       HT       0.417000       1.00800           0
     26884 TIP3     3170     TIP3     H2       HT       0.417000       1.00800           0
     26885 TIP3     3171     TIP3     OH2      OT      -0.834000       15.9994           0
     26886 TIP3     3171     TIP3     H1       HT       0.417000       1.00800           0
     26887 TIP3     3171     TIP3     H2       HT       0.417000       1.00800           0
     26888 TIP3     3172     TIP3     OH2      OT      -0.834000       15.9994           0
     26889 TIP3     3172     TIP3     H1       HT       0.417000       1.00800           0
     26890 TIP3     3172     TIP3     H2       HT       0.417000       1.00800           0
     26891 TIP3     3173     TIP3     OH2      OT      -0.834000       15.9994           0
     26892 TIP3     3173     TIP3     H1       HT       0.417000       1.00800           0
     26893 TIP3     3173     TIP3     H2       HT       0.417000       1.00800           0
     26894 TIP3     3174     TIP3     OH2      OT      -0.834000       15.9994           0
     26895 TIP3     3174     TIP3     H1       HT       0.417000       1.00800           0
     26896 TIP3     3174     TIP3     H2       HT       0.417000       1.00800           0
     26897 TIP3     3175     TIP3     OH2      OT      -0.834000       15.9994           0
     26898 TIP3     3175     TIP3     H1       HT       0.417000       1.00800           0
     26899 TIP3     3175     TIP3     H2       HT       0.417000       1.00800           0
     26900 TIP3     3176     TIP3     OH2      OT      -0.834000       15.9994           0
     26901 TIP3     3176     TIP3     H1       HT       0.417000       1.00800           0
     26902 TIP3     3176     TIP3     H2       HT       0.417000       1.00800           0
     26903 TIP3     3177     TIP3     OH2      OT      -0.834000       15.9994           0
     26904 TIP3     3177     TIP3     H1       HT       0.417000       1.00800           0
     26905 TIP3     3177     TIP3     H2       HT       0.417000       1.00800           0
     26906 TIP3     3178     TIP3     OH2      OT      -0.834000       15.9994           0
     26907 TIP3     3178     TIP3     H1       HT       0.417000       1.00800           0
     26908 TIP3     3178     TIP3     H2       HT       0.417000       1.00800           0
     26909 TIP3     3179     TIP3     OH2      OT      -0.834000       15.9994           0
     26910 TIP3     3179     TIP3     H1       HT       0.417000       1.00800           0
     26911 TIP3     3179     TIP3     H2       HT       0.417000       1.00800           0
     26912 TIP3     3180     TIP3     OH2      OT      -0.834000       15.9994           0
     26913 TIP3     3180     TIP3     H1       HT       0.417000       1.00800           0
     26914 TIP3     3180     TIP3     H2       HT       0.417000       1.00800           0
     26915 TIP3     3181     TIP3     OH2      OT      -0.834000       15.9994           0
     26916 TIP3     3181     TIP3     H1       HT       0.417000       1.00800           0
     26917 TIP3     3181     TIP3     H2       HT       0.417000       1.00800           0
     26918 TIP3     3182     TIP3     OH2      OT      -0.834000       15.9994           0
     26919 TIP3     3182     TIP3     H1       HT       0.417000       1.00800           0
     26920 TIP3     3182     TIP3     H2       HT       0.417000       1.00800           0
     26921 TIP3     3183     TIP3     OH2      OT      -0.834000       15.9994           0
     26922 TIP3     3183     TIP3     H1       HT       0.417000       1.00800           0
     26923 TIP3     3183     TIP3     H2       HT       0.417000       1.00800           0
     26924 TIP3     3184     TIP3     OH2      OT      -0.834000       15.9994           0
     26925 TIP3     3184     TIP3     H1       HT       0.417000       1.00800           0
     26926 TIP3     3184     TIP3     H2       HT       0.417000       1.00800           0
     26927 TIP3     3185     TIP3     OH2      OT      -0.834000       15.9994           0
     26928 TIP3     3185     TIP3     H1       HT       0.417000       1.00800           0
     26929 TIP3     3185     TIP3     H2       HT       0.417000       1.00800           0
     26930 TIP3     3186     TIP3     OH2      OT      -0.834000       15.9994           0
     26931 TIP3     3186     TIP3     H1       HT       0.417000       1.00800           0
     26932 TIP3     3186     TIP3     H2       HT       0.417000       1.00800           0
     26933 TIP3     3187     TIP3     OH2      OT      -0.834000       15.9994           0
     26934 TIP3     3187     TIP3     H1       HT       0.417000       1.00800           0
     26935 TIP3     3187     TIP3     H2       HT       0.417000       1.00800           0
     26936 TIP3     3188     TIP3     OH2      OT      -0.834000       15.9994           0
     26937 TIP3     3188     TIP3     H1       HT       0.417000       1.00800           0
     26938 TIP3     3188     TIP3     H2       HT       0.417000       1.00800           0
     26939 TIP3     3189     TIP3     OH2      OT      -0.834000       15.9994           0
     26940 TIP3     3189     TIP3     H1       HT       0.417000       1.00800           0
     26941 TIP3     3189     TIP3     H2       HT       0.417000       1.00800           0
     26942 TIP3     3190     TIP3     OH2      OT      -0.834000       15.9994           0
     26943 TIP3     3190     TIP3     H1       HT       0.417000       1.00800           0
     26944 TIP3     3190     TIP3     H2       HT       0.417000       1.00800           0
     26945 TIP3     3191     TIP3     OH2      OT      -0.834000       15.9994           0
     26946 TIP3     3191     TIP3     H1       HT       0.417000       1.00800           0
     26947 TIP3     3191     TIP3     H2       HT       0.417000       1.00800           0
     26948 TIP3     3192     TIP3     OH2      OT      -0.834000       15.9994           0
     26949 TIP3     3192     TIP3     H1       HT       0.417000       1.00800           0
     26950 TIP3     3192     TIP3     H2       HT       0.417000       1.00800           0
     26951 TIP3     3193     TIP3     OH2      OT      -0.834000       15.9994           0
     26952 TIP3     3193     TIP3     H1       HT       0.417000       1.00800           0
     26953 TIP3     3193     TIP3     H2       HT       0.417000       1.00800           0
     26954 TIP3     3194     TIP3     OH2      OT      -0.834000       15.9994           0
     26955 TIP3     3194     TIP3     H1       HT       0.417000       1.00800           0
     26956 TIP3     3194     TIP3     H2       HT       0.417000       1.00800           0
     26957 TIP3     3195     TIP3     OH2      OT      -0.834000       15.9994           0
     26958 TIP3     3195     TIP3     H1       HT       0.417000       1.00800           0
     26959 TIP3     3195     TIP3     H2       HT       0.417000       1.00800           0
     26960 TIP3     3196     TIP3     OH2      OT      -0.834000       15.9994           0
     26961 TIP3     3196     TIP3     H1       HT       0.417000       1.00800           0
     26962 TIP3     3196     TIP3     H2       HT       0.417000       1.00800           0
     26963 TIP3     3197     TIP3     OH2      OT      -0.834000       15.9994           0
     26964 TIP3     3197     TIP3     H1       HT       0.417000       1.00800           0
     26965 TIP3     3197     TIP3     H2       HT       0.417000       1.00800           0
     26966 TIP3     3198     TIP3     OH2      OT      -0.834000       15.9994           0
     26967 TIP3     3198     TIP3     H1       HT       0.417000       1.00800           0
     26968 TIP3     3198     TIP3     H2       HT       0.417000       1.00800           0
     26969 TIP3     3199     TIP3     OH2      OT      -0.834000       15.9994           0
     26970 TIP3     3199     TIP3     H1       HT       0.417000       1.00800           0
     26971 TIP3     3199     TIP3     H2       HT       0.417000       1.00800           0
     26972 TIP3     3200     TIP3     OH2      OT      -0.834000       15.9994           0
     26973 TIP3     3200     TIP3     H1       HT       0.417000       1.00800           0
     26974 TIP3     3200     TIP3     H2       HT       0.417000       1.00800           0
     26975 TIP3     3201     TIP3     OH2      OT      -0.834000       15.9994           0
     26976 TIP3     3201     TIP3     H1       HT       0.417000       1.00800           0
     26977 TIP3     3201     TIP3     H2       HT       0.417000       1.00800           0
     26978 TIP3     3202     TIP3     OH2      OT      -0.834000       15.9994           0
     26979 TIP3     3202     TIP3     H1       HT       0.417000       1.00800           0
     26980 TIP3     3202     TIP3     H2       HT       0.417000       1.00800           0
     26981 TIP3     3203     TIP3     OH2      OT      -0.834000       15.9994           0
     26982 TIP3     3203     TIP3     H1       HT       0.417000       1.00800           0
     26983 TIP3     3203     TIP3     H2       HT       0.417000       1.00800           0
     26984 TIP3     3204     TIP3     OH2      OT      -0.834000       15.9994           0
     26985 TIP3     3204     TIP3     H1       HT       0.417000       1.00800           0
     26986 TIP3     3204     TIP3     H2       HT       0.417000       1.00800           0
     26987 TIP3     3205     TIP3     OH2      OT      -0.834000       15.9994           0
     26988 TIP3     3205     TIP3     H1       HT       0.417000       1.00800           0
     26989 TIP3     3205     TIP3     H2       HT       0.417000       1.00800           0
     26990 TIP3     3206     TIP3     OH2      OT      -0.834000       15.9994           0
     26991 TIP3     3206     TIP3     H1       HT       0.417000       1.00800           0
     26992 TIP3     3206     TIP3     H2       HT       0.417000       1.00800           0
     26993 TIP3     3207     TIP3     OH2      OT      -0.834000       15.9994           0
     26994 TIP3     3207     TIP3     H1       HT       0.417000       1.00800           0
     26995 TIP3     3207     TIP3     H2       HT       0.417000       1.00800           0
     26996 TIP3     3208     TIP3     OH2      OT      -0.834000       15.9994           0
     26997 TIP3     3208     TIP3     H1       HT       0.417000       1.00800           0
     26998 TIP3     3208     TIP3     H2       HT       0.417000       1.00800           0
     26999 TIP3     3209     TIP3     OH2      OT      -0.834000       15.9994           0
     27000 TIP3     3209     TIP3     H1       HT       0.417000       1.00800           0
     27001 TIP3     3209     TIP3     H2       HT       0.417000       1.00800           0
     27002 TIP3     3210     TIP3     OH2      OT      -0.834000       15.9994           0
     27003 TIP3     3210     TIP3     H1       HT       0.417000       1.00800           0
     27004 TIP3     3210     TIP3     H2       HT       0.417000       1.00800           0
     27005 TIP3     3211     TIP3     OH2      OT      -0.834000       15.9994           0
     27006 TIP3     3211     TIP3     H1       HT       0.417000       1.00800           0
     27007 TIP3     3211     TIP3     H2       HT       0.417000       1.00800           0
     27008 TIP3     3212     TIP3     OH2      OT      -0.834000       15.9994           0
     27009 TIP3     3212     TIP3     H1       HT       0.417000       1.00800           0
     27010 TIP3     3212     TIP3     H2       HT       0.417000       1.00800           0
     27011 TIP3     3213     TIP3     OH2      OT      -0.834000       15.9994           0
     27012 TIP3     3213     TIP3     H1       HT       0.417000       1.00800           0
     27013 TIP3     3213     TIP3     H2       HT       0.417000       1.00800           0
     27014 TIP3     3214     TIP3     OH2      OT      -0.834000       15.9994           0
     27015 TIP3     3214     TIP3     H1       HT       0.417000       1.00800           0
     27016 TIP3     3214     TIP3     H2       HT       0.417000       1.00800           0
     27017 TIP3     3215     TIP3     OH2      OT      -0.834000       15.9994           0
     27018 TIP3     3215     TIP3     H1       HT       0.417000       1.00800           0
     27019 TIP3     3215     TIP3     H2       HT       0.417000       1.00800           0
     27020 TIP3     3216     TIP3     OH2      OT      -0.834000       15.9994           0
     27021 TIP3     3216     TIP3     H1       HT       0.417000       1.00800           0
     27022 TIP3     3216     TIP3     H2       HT       0.417000       1.00800           0
     27023 TIP3     3217     TIP3     OH2      OT      -0.834000       15.9994           0
     27024 TIP3     3217     TIP3     H1       HT       0.417000       1.00800           0
     27025 TIP3     3217     TIP3     H2       HT       0.417000       1.00800           0
     27026 TIP3     3218     TIP3     OH2      OT      -0.834000       15.9994           0
     27027 TIP3     3218     TIP3     H1       HT       0.417000       1.00800           0
     27028 TIP3     3218     TIP3     H2       HT       0.417000       1.00800           0
     27029 TIP3     3219     TIP3     OH2      OT      -0.834000       15.9994           0
     27030 TIP3     3219     TIP3     H1       HT       0.417000       1.00800           0
     27031 TIP3     3219     TIP3     H2       HT       0.417000       1.00800           0
     27032 TIP3     3220     TIP3     OH2      OT      -0.834000       15.9994           0
     27033 TIP3     3220     TIP3     H1       HT       0.417000       1.00800           0
     27034 TIP3     3220     TIP3     H2       HT       0.417000       1.00800           0
     27035 TIP3     3221     TIP3     OH2      OT      -0.834000       15.9994           0
     27036 TIP3     3221     TIP3     H1       HT       0.417000       1.00800           0
     27037 TIP3     3221     TIP3     H2       HT       0.417000       1.00800           0
     27038 TIP3     3222     TIP3     OH2      OT      -0.834000       15.9994           0
     27039 TIP3     3222     TIP3     H1       HT       0.417000       1.00800           0
     27040 TIP3     3222     TIP3     H2       HT       0.417000       1.00800           0
     27041 TIP3     3223     TIP3     OH2      OT      -0.834000       15.9994           0
     27042 TIP3     3223     TIP3     H1       HT       0.417000       1.00800           0
     27043 TIP3     3223     TIP3     H2       HT       0.417000       1.00800           0
     27044 TIP3     3224     TIP3     OH2      OT      -0.834000       15.9994           0
     27045 TIP3     3224     TIP3     H1       HT       0.417000       1.00800           0
     27046 TIP3     3224     TIP3     H2       HT       0.417000       1.00800           0
     27047 TIP3     3225     TIP3     OH2      OT      -0.834000       15.9994           0
     27048 TIP3     3225     TIP3     H1       HT       0.417000       1.00800           0
     27049 TIP3     3225     TIP3     H2       HT       0.417000       1.00800           0
     27050 TIP3     3226     TIP3     OH2      OT      -0.834000       15.9994           0
     27051 TIP3     3226     TIP3     H1       HT       0.417000       1.00800           0
     27052 TIP3     3226     TIP3     H2       HT       0.417000       1.00800           0
     27053 TIP3     3227     TIP3     OH2      OT      -0.834000       15.9994           0
     27054 TIP3     3227     TIP3     H1       HT       0.417000       1.00800           0
     27055 TIP3     3227     TIP3     H2       HT       0.417000       1.00800           0
     27056 TIP3     3228     TIP3     OH2      OT      -0.834000       15.9994           0
     27057 TIP3     3228     TIP3     H1       HT       0.417000       1.00800           0
     27058 TIP3     3228     TIP3     H2       HT       0.417000       1.00800           0
     27059 TIP3     3229     TIP3     OH2      OT      -0.834000       15.9994           0
     27060 TIP3     3229     TIP3     H1       HT       0.417000       1.00800           0
     27061 TIP3     3229     TIP3     H2       HT       0.417000       1.00800           0
     27062 TIP3     3230     TIP3     OH2      OT      -0.834000       15.9994           0
     27063 TIP3     3230     TIP3     H1       HT       0.417000       1.00800           0
     27064 TIP3     3230     TIP3     H2       HT       0.417000       1.00800           0
     27065 TIP3     3231     TIP3     OH2      OT      -0.834000       15.9994           0
     27066 TIP3     3231     TIP3     H1       HT       0.417000       1.00800           0
     27067 TIP3     3231     TIP3     H2       HT       0.417000       1.00800           0
     27068 TIP3     3232     TIP3     OH2      OT      -0.834000       15.9994           0
     27069 TIP3     3232     TIP3     H1       HT       0.417000       1.00800           0
     27070 TIP3     3232     TIP3     H2       HT       0.417000       1.00800           0
     27071 TIP3     3233     TIP3     OH2      OT      -0.834000       15.9994           0
     27072 TIP3     3233     TIP3     H1       HT       0.417000       1.00800           0
     27073 TIP3     3233     TIP3     H2       HT       0.417000       1.00800           0
     27074 TIP3     3234     TIP3     OH2      OT      -0.834000       15.9994           0
     27075 TIP3     3234     TIP3     H1       HT       0.417000       1.00800           0
     27076 TIP3     3234     TIP3     H2       HT       0.417000       1.00800           0
     27077 TIP3     3235     TIP3     OH2      OT      -0.834000       15.9994           0
     27078 TIP3     3235     TIP3     H1       HT       0.417000       1.00800           0
     27079 TIP3     3235     TIP3     H2       HT       0.417000       1.00800           0
     27080 TIP3     3236     TIP3     OH2      OT      -0.834000       15.9994           0
     27081 TIP3     3236     TIP3     H1       HT       0.417000       1.00800           0
     27082 TIP3     3236     TIP3     H2       HT       0.417000       1.00800           0
     27083 TIP3     3237     TIP3     OH2      OT      -0.834000       15.9994           0
     27084 TIP3     3237     TIP3     H1       HT       0.417000       1.00800           0
     27085 TIP3     3237     TIP3     H2       HT       0.417000       1.00800           0
     27086 TIP3     3238     TIP3     OH2      OT      -0.834000       15.9994           0
     27087 TIP3     3238     TIP3     H1       HT       0.417000       1.00800           0
     27088 TIP3     3238     TIP3     H2       HT       0.417000       1.00800           0
     27089 TIP3     3239     TIP3     OH2      OT      -0.834000       15.9994           0
     27090 TIP3     3239     TIP3     H1       HT       0.417000       1.00800           0
     27091 TIP3     3239     TIP3     H2       HT       0.417000       1.00800           0
     27092 TIP3     3240     TIP3     OH2      OT      -0.834000       15.9994           0
     27093 TIP3     3240     TIP3     H1       HT       0.417000       1.00800           0
     27094 TIP3     3240     TIP3     H2       HT       0.417000       1.00800           0
     27095 TIP3     3241     TIP3     OH2      OT      -0.834000       15.9994           0
     27096 TIP3     3241     TIP3     H1       HT       0.417000       1.00800           0
     27097 TIP3     3241     TIP3     H2       HT       0.417000       1.00800           0
     27098 TIP3     3242     TIP3     OH2      OT      -0.834000       15.9994           0
     27099 TIP3     3242     TIP3     H1       HT       0.417000       1.00800           0
     27100 TIP3     3242     TIP3     H2       HT       0.417000       1.00800           0
     27101 TIP3     3243     TIP3     OH2      OT      -0.834000       15.9994           0
     27102 TIP3     3243     TIP3     H1       HT       0.417000       1.00800           0
     27103 TIP3     3243     TIP3     H2       HT       0.417000       1.00800           0
     27104 TIP3     3244     TIP3     OH2      OT      -0.834000       15.9994           0
     27105 TIP3     3244     TIP3     H1       HT       0.417000       1.00800           0
     27106 TIP3     3244     TIP3     H2       HT       0.417000       1.00800           0
     27107 TIP3     3245     TIP3     OH2      OT      -0.834000       15.9994           0
     27108 TIP3     3245     TIP3     H1       HT       0.417000       1.00800           0
     27109 TIP3     3245     TIP3     H2       HT       0.417000       1.00800           0
     27110 TIP3     3246     TIP3     OH2      OT      -0.834000       15.9994           0
     27111 TIP3     3246     TIP3     H1       HT       0.417000       1.00800           0
     27112 TIP3     3246     TIP3     H2       HT       0.417000       1.00800           0
     27113 TIP3     3247     TIP3     OH2      OT      -0.834000       15.9994           0
     27114 TIP3     3247     TIP3     H1       HT       0.417000       1.00800           0
     27115 TIP3     3247     TIP3     H2       HT       0.417000       1.00800           0
     27116 TIP3     3248     TIP3     OH2      OT      -0.834000       15.9994           0
     27117 TIP3     3248     TIP3     H1       HT       0.417000       1.00800           0
     27118 TIP3     3248     TIP3     H2       HT       0.417000       1.00800           0
     27119 TIP3     3249     TIP3     OH2      OT      -0.834000       15.9994           0
     27120 TIP3     3249     TIP3     H1       HT       0.417000       1.00800           0
     27121 TIP3     3249     TIP3     H2       HT       0.417000       1.00800           0
     27122 TIP3     3250     TIP3     OH2      OT      -0.834000       15.9994           0
     27123 TIP3     3250     TIP3     H1       HT       0.417000       1.00800           0
     27124 TIP3     3250     TIP3     H2       HT       0.417000       1.00800           0
     27125 TIP3     3251     TIP3     OH2      OT      -0.834000       15.9994           0
     27126 TIP3     3251     TIP3     H1       HT       0.417000       1.00800           0
     27127 TIP3     3251     TIP3     H2       HT       0.417000       1.00800           0
     27128 TIP3     3252     TIP3     OH2      OT      -0.834000       15.9994           0
     27129 TIP3     3252     TIP3     H1       HT       0.417000       1.00800           0
     27130 TIP3     3252     TIP3     H2       HT       0.417000       1.00800           0
     27131 TIP3     3253     TIP3     OH2      OT      -0.834000       15.9994           0
     27132 TIP3     3253     TIP3     H1       HT       0.417000       1.00800           0
     27133 TIP3     3253     TIP3     H2       HT       0.417000       1.00800           0
     27134 TIP3     3254     TIP3     OH2      OT      -0.834000       15.9994           0
     27135 TIP3     3254     TIP3     H1       HT       0.417000       1.00800           0
     27136 TIP3     3254     TIP3     H2       HT       0.417000       1.00800           0
     27137 TIP3     3255     TIP3     OH2      OT      -0.834000       15.9994           0
     27138 TIP3     3255     TIP3     H1       HT       0.417000       1.00800           0
     27139 TIP3     3255     TIP3     H2       HT       0.417000       1.00800           0
     27140 TIP3     3256     TIP3     OH2      OT      -0.834000       15.9994           0
     27141 TIP3     3256     TIP3     H1       HT       0.417000       1.00800           0
     27142 TIP3     3256     TIP3     H2       HT       0.417000       1.00800           0
     27143 TIP3     3257     TIP3     OH2      OT      -0.834000       15.9994           0
     27144 TIP3     3257     TIP3     H1       HT       0.417000       1.00800           0
     27145 TIP3     3257     TIP3     H2       HT       0.417000       1.00800           0
     27146 TIP3     3258     TIP3     OH2      OT      -0.834000       15.9994           0
     27147 TIP3     3258     TIP3     H1       HT       0.417000       1.00800           0
     27148 TIP3     3258     TIP3     H2       HT       0.417000       1.00800           0
     27149 TIP3     3259     TIP3     OH2      OT      -0.834000       15.9994           0
     27150 TIP3     3259     TIP3     H1       HT       0.417000       1.00800           0
     27151 TIP3     3259     TIP3     H2       HT       0.417000       1.00800           0
     27152 TIP3     3260     TIP3     OH2      OT      -0.834000       15.9994           0
     27153 TIP3     3260     TIP3     H1       HT       0.417000       1.00800           0
     27154 TIP3     3260     TIP3     H2       HT       0.417000       1.00800           0
     27155 TIP3     3261     TIP3     OH2      OT      -0.834000       15.9994           0
     27156 TIP3     3261     TIP3     H1       HT       0.417000       1.00800           0
     27157 TIP3     3261     TIP3     H2       HT       0.417000       1.00800           0
     27158 TIP3     3262     TIP3     OH2      OT      -0.834000       15.9994           0
     27159 TIP3     3262     TIP3     H1       HT       0.417000       1.00800           0
     27160 TIP3     3262     TIP3     H2       HT       0.417000       1.00800           0
     27161 TIP3     3263     TIP3     OH2      OT      -0.834000       15.9994           0
     27162 TIP3     3263     TIP3     H1       HT       0.417000       1.00800           0
     27163 TIP3     3263     TIP3     H2       HT       0.417000       1.00800           0
     27164 TIP3     3264     TIP3     OH2      OT      -0.834000       15.9994           0
     27165 TIP3     3264     TIP3     H1       HT       0.417000       1.00800           0
     27166 TIP3     3264     TIP3     H2       HT       0.417000       1.00800           0
     27167 TIP3     3265     TIP3     OH2      OT      -0.834000       15.9994           0
     27168 TIP3     3265     TIP3     H1       HT       0.417000       1.00800           0
     27169 TIP3     3265     TIP3     H2       HT       0.417000       1.00800           0
     27170 TIP3     3266     TIP3     OH2      OT      -0.834000       15.9994           0
     27171 TIP3     3266     TIP3     H1       HT       0.417000       1.00800           0
     27172 TIP3     3266     TIP3     H2       HT       0.417000       1.00800           0
     27173 TIP3     3267     TIP3     OH2      OT      -0.834000       15.9994           0
     27174 TIP3     3267     TIP3     H1       HT       0.417000       1.00800           0
     27175 TIP3     3267     TIP3     H2       HT       0.417000       1.00800           0
     27176 TIP3     3268     TIP3     OH2      OT      -0.834000       15.9994           0
     27177 TIP3     3268     TIP3     H1       HT       0.417000       1.00800           0
     27178 TIP3     3268     TIP3     H2       HT       0.417000       1.00800           0
     27179 TIP3     3269     TIP3     OH2      OT      -0.834000       15.9994           0
     27180 TIP3     3269     TIP3     H1       HT       0.417000       1.00800           0
     27181 TIP3     3269     TIP3     H2       HT       0.417000       1.00800           0
     27182 TIP3     3270     TIP3     OH2      OT      -0.834000       15.9994           0
     27183 TIP3     3270     TIP3     H1       HT       0.417000       1.00800           0
     27184 TIP3     3270     TIP3     H2       HT       0.417000       1.00800           0
     27185 TIP3     3271     TIP3     OH2      OT      -0.834000       15.9994           0
     27186 TIP3     3271     TIP3     H1       HT       0.417000       1.00800           0
     27187 TIP3     3271     TIP3     H2       HT       0.417000       1.00800           0
     27188 TIP3     3272     TIP3     OH2      OT      -0.834000       15.9994           0
     27189 TIP3     3272     TIP3     H1       HT       0.417000       1.00800           0
     27190 TIP3     3272     TIP3     H2       HT       0.417000       1.00800           0
     27191 TIP3     3273     TIP3     OH2      OT      -0.834000       15.9994           0
     27192 TIP3     3273     TIP3     H1       HT       0.417000       1.00800           0
     27193 TIP3     3273     TIP3     H2       HT       0.417000       1.00800           0
     27194 TIP3     3274     TIP3     OH2      OT      -0.834000       15.9994           0
     27195 TIP3     3274     TIP3     H1       HT       0.417000       1.00800           0
     27196 TIP3     3274     TIP3     H2       HT       0.417000       1.00800           0
     27197 TIP3     3275     TIP3     OH2      OT      -0.834000       15.9994           0
     27198 TIP3     3275     TIP3     H1       HT       0.417000       1.00800           0
     27199 TIP3     3275     TIP3     H2       HT       0.417000       1.00800           0
     27200 TIP3     3276     TIP3     OH2      OT      -0.834000       15.9994           0
     27201 TIP3     3276     TIP3     H1       HT       0.417000       1.00800           0
     27202 TIP3     3276     TIP3     H2       HT       0.417000       1.00800           0
     27203 TIP3     3277     TIP3     OH2      OT      -0.834000       15.9994           0
     27204 TIP3     3277     TIP3     H1       HT       0.417000       1.00800           0
     27205 TIP3     3277     TIP3     H2       HT       0.417000       1.00800           0
     27206 TIP3     3278     TIP3     OH2      OT      -0.834000       15.9994           0
     27207 TIP3     3278     TIP3     H1       HT       0.417000       1.00800           0
     27208 TIP3     3278     TIP3     H2       HT       0.417000       1.00800           0
     27209 TIP3     3279     TIP3     OH2      OT      -0.834000       15.9994           0
     27210 TIP3     3279     TIP3     H1       HT       0.417000       1.00800           0
     27211 TIP3     3279     TIP3     H2       HT       0.417000       1.00800           0
     27212 TIP3     3280     TIP3     OH2      OT      -0.834000       15.9994           0
     27213 TIP3     3280     TIP3     H1       HT       0.417000       1.00800           0
     27214 TIP3     3280     TIP3     H2       HT       0.417000       1.00800           0
     27215 TIP3     3281     TIP3     OH2      OT      -0.834000       15.9994           0
     27216 TIP3     3281     TIP3     H1       HT       0.417000       1.00800           0
     27217 TIP3     3281     TIP3     H2       HT       0.417000       1.00800           0
     27218 TIP3     3282     TIP3     OH2      OT      -0.834000       15.9994           0
     27219 TIP3     3282     TIP3     H1       HT       0.417000       1.00800           0
     27220 TIP3     3282     TIP3     H2       HT       0.417000       1.00800           0
     27221 TIP3     3283     TIP3     OH2      OT      -0.834000       15.9994           0
     27222 TIP3     3283     TIP3     H1       HT       0.417000       1.00800           0
     27223 TIP3     3283     TIP3     H2       HT       0.417000       1.00800           0
     27224 TIP3     3284     TIP3     OH2      OT      -0.834000       15.9994           0
     27225 TIP3     3284     TIP3     H1       HT       0.417000       1.00800           0
     27226 TIP3     3284     TIP3     H2       HT       0.417000       1.00800           0
     27227 TIP3     3285     TIP3     OH2      OT      -0.834000       15.9994           0
     27228 TIP3     3285     TIP3     H1       HT       0.417000       1.00800           0
     27229 TIP3     3285     TIP3     H2       HT       0.417000       1.00800           0
     27230 TIP3     3286     TIP3     OH2      OT      -0.834000       15.9994           0
     27231 TIP3     3286     TIP3     H1       HT       0.417000       1.00800           0
     27232 TIP3     3286     TIP3     H2       HT       0.417000       1.00800           0
     27233 TIP3     3287     TIP3     OH2      OT      -0.834000       15.9994           0
     27234 TIP3     3287     TIP3     H1       HT       0.417000       1.00800           0
     27235 TIP3     3287     TIP3     H2       HT       0.417000       1.00800           0
     27236 TIP3     3288     TIP3     OH2      OT      -0.834000       15.9994           0
     27237 TIP3     3288     TIP3     H1       HT       0.417000       1.00800           0
     27238 TIP3     3288     TIP3     H2       HT       0.417000       1.00800           0
     27239 TIP3     3289     TIP3     OH2      OT      -0.834000       15.9994           0
     27240 TIP3     3289     TIP3     H1       HT       0.417000       1.00800           0
     27241 TIP3     3289     TIP3     H2       HT       0.417000       1.00800           0
     27242 TIP3     3290     TIP3     OH2      OT      -0.834000       15.9994           0
     27243 TIP3     3290     TIP3     H1       HT       0.417000       1.00800           0
     27244 TIP3     3290     TIP3     H2       HT       0.417000       1.00800           0
     27245 TIP3     3291     TIP3     OH2      OT      -0.834000       15.9994           0
     27246 TIP3     3291     TIP3     H1       HT       0.417000       1.00800           0
     27247 TIP3     3291     TIP3     H2       HT       0.417000       1.00800           0
     27248 TIP3     3292     TIP3     OH2      OT      -0.834000       15.9994           0
     27249 TIP3     3292     TIP3     H1       HT       0.417000       1.00800           0
     27250 TIP3     3292     TIP3     H2       HT       0.417000       1.00800           0
     27251 TIP3     3293     TIP3     OH2      OT      -0.834000       15.9994           0
     27252 TIP3     3293     TIP3     H1       HT       0.417000       1.00800           0
     27253 TIP3     3293     TIP3     H2       HT       0.417000       1.00800           0
     27254 TIP3     3294     TIP3     OH2      OT      -0.834000       15.9994           0
     27255 TIP3     3294     TIP3     H1       HT       0.417000       1.00800           0
     27256 TIP3     3294     TIP3     H2       HT       0.417000       1.00800           0
     27257 TIP3     3295     TIP3     OH2      OT      -0.834000       15.9994           0
     27258 TIP3     3295     TIP3     H1       HT       0.417000       1.00800           0
     27259 TIP3     3295     TIP3     H2       HT       0.417000       1.00800           0
     27260 TIP3     3296     TIP3     OH2      OT      -0.834000       15.9994           0
     27261 TIP3     3296     TIP3     H1       HT       0.417000       1.00800           0
     27262 TIP3     3296     TIP3     H2       HT       0.417000       1.00800           0
     27263 TIP3     3297     TIP3     OH2      OT      -0.834000       15.9994           0
     27264 TIP3     3297     TIP3     H1       HT       0.417000       1.00800           0
     27265 TIP3     3297     TIP3     H2       HT       0.417000       1.00800           0
     27266 TIP3     3298     TIP3     OH2      OT      -0.834000       15.9994           0
     27267 TIP3     3298     TIP3     H1       HT       0.417000       1.00800           0
     27268 TIP3     3298     TIP3     H2       HT       0.417000       1.00800           0
     27269 TIP3     3299     TIP3     OH2      OT      -0.834000       15.9994           0
     27270 TIP3     3299     TIP3     H1       HT       0.417000       1.00800           0
     27271 TIP3     3299     TIP3     H2       HT       0.417000       1.00800           0
     27272 TIP3     3300     TIP3     OH2      OT      -0.834000       15.9994           0
     27273 TIP3     3300     TIP3     H1       HT       0.417000       1.00800           0
     27274 TIP3     3300     TIP3     H2       HT       0.417000       1.00800           0
     27275 TIP3     3301     TIP3     OH2      OT      -0.834000       15.9994           0
     27276 TIP3     3301     TIP3     H1       HT       0.417000       1.00800           0
     27277 TIP3     3301     TIP3     H2       HT       0.417000       1.00800           0
     27278 TIP3     3302     TIP3     OH2      OT      -0.834000       15.9994           0
     27279 TIP3     3302     TIP3     H1       HT       0.417000       1.00800           0
     27280 TIP3     3302     TIP3     H2       HT       0.417000       1.00800           0
     27281 TIP3     3303     TIP3     OH2      OT      -0.834000       15.9994           0
     27282 TIP3     3303     TIP3     H1       HT       0.417000       1.00800           0
     27283 TIP3     3303     TIP3     H2       HT       0.417000       1.00800           0
     27284 TIP3     3304     TIP3     OH2      OT      -0.834000       15.9994           0
     27285 TIP3     3304     TIP3     H1       HT       0.417000       1.00800           0
     27286 TIP3     3304     TIP3     H2       HT       0.417000       1.00800           0
     27287 TIP3     3305     TIP3     OH2      OT      -0.834000       15.9994           0
     27288 TIP3     3305     TIP3     H1       HT       0.417000       1.00800           0
     27289 TIP3     3305     TIP3     H2       HT       0.417000       1.00800           0
     27290 TIP3     3306     TIP3     OH2      OT      -0.834000       15.9994           0
     27291 TIP3     3306     TIP3     H1       HT       0.417000       1.00800           0
     27292 TIP3     3306     TIP3     H2       HT       0.417000       1.00800           0
     27293 TIP3     3307     TIP3     OH2      OT      -0.834000       15.9994           0
     27294 TIP3     3307     TIP3     H1       HT       0.417000       1.00800           0
     27295 TIP3     3307     TIP3     H2       HT       0.417000       1.00800           0
     27296 TIP3     3308     TIP3     OH2      OT      -0.834000       15.9994           0
     27297 TIP3     3308     TIP3     H1       HT       0.417000       1.00800           0
     27298 TIP3     3308     TIP3     H2       HT       0.417000       1.00800           0
     27299 TIP3     3309     TIP3     OH2      OT      -0.834000       15.9994           0
     27300 TIP3     3309     TIP3     H1       HT       0.417000       1.00800           0
     27301 TIP3     3309     TIP3     H2       HT       0.417000       1.00800           0
     27302 TIP3     3310     TIP3     OH2      OT      -0.834000       15.9994           0
     27303 TIP3     3310     TIP3     H1       HT       0.417000       1.00800           0
     27304 TIP3     3310     TIP3     H2       HT       0.417000       1.00800           0
     27305 TIP3     3311     TIP3     OH2      OT      -0.834000       15.9994           0
     27306 TIP3     3311     TIP3     H1       HT       0.417000       1.00800           0
     27307 TIP3     3311     TIP3     H2       HT       0.417000       1.00800           0
     27308 TIP3     3312     TIP3     OH2      OT      -0.834000       15.9994           0
     27309 TIP3     3312     TIP3     H1       HT       0.417000       1.00800           0
     27310 TIP3     3312     TIP3     H2       HT       0.417000       1.00800           0
     27311 TIP3     3313     TIP3     OH2      OT      -0.834000       15.9994           0
     27312 TIP3     3313     TIP3     H1       HT       0.417000       1.00800           0
     27313 TIP3     3313     TIP3     H2       HT       0.417000       1.00800           0
     27314 TIP3     3314     TIP3     OH2      OT      -0.834000       15.9994           0
     27315 TIP3     3314     TIP3     H1       HT       0.417000       1.00800           0
     27316 TIP3     3314     TIP3     H2       HT       0.417000       1.00800           0
     27317 TIP3     3315     TIP3     OH2      OT      -0.834000       15.9994           0
     27318 TIP3     3315     TIP3     H1       HT       0.417000       1.00800           0
     27319 TIP3     3315     TIP3     H2       HT       0.417000       1.00800           0
     27320 TIP3     3316     TIP3     OH2      OT      -0.834000       15.9994           0
     27321 TIP3     3316     TIP3     H1       HT       0.417000       1.00800           0
     27322 TIP3     3316     TIP3     H2       HT       0.417000       1.00800           0
     27323 TIP3     3317     TIP3     OH2      OT      -0.834000       15.9994           0
     27324 TIP3     3317     TIP3     H1       HT       0.417000       1.00800           0
     27325 TIP3     3317     TIP3     H2       HT       0.417000       1.00800           0
     27326 TIP3     3318     TIP3     OH2      OT      -0.834000       15.9994           0
     27327 TIP3     3318     TIP3     H1       HT       0.417000       1.00800           0
     27328 TIP3     3318     TIP3     H2       HT       0.417000       1.00800           0
     27329 TIP3     3319     TIP3     OH2      OT      -0.834000       15.9994           0
     27330 TIP3     3319     TIP3     H1       HT       0.417000       1.00800           0
     27331 TIP3     3319     TIP3     H2       HT       0.417000       1.00800           0
     27332 TIP3     3320     TIP3     OH2      OT      -0.834000       15.9994           0
     27333 TIP3     3320     TIP3     H1       HT       0.417000       1.00800           0
     27334 TIP3     3320     TIP3     H2       HT       0.417000       1.00800           0
     27335 TIP3     3321     TIP3     OH2      OT      -0.834000       15.9994           0
     27336 TIP3     3321     TIP3     H1       HT       0.417000       1.00800           0
     27337 TIP3     3321     TIP3     H2       HT       0.417000       1.00800           0
     27338 TIP3     3322     TIP3     OH2      OT      -0.834000       15.9994           0
     27339 TIP3     3322     TIP3     H1       HT       0.417000       1.00800           0
     27340 TIP3     3322     TIP3     H2       HT       0.417000       1.00800           0
     27341 TIP3     3323     TIP3     OH2      OT      -0.834000       15.9994           0
     27342 TIP3     3323     TIP3     H1       HT       0.417000       1.00800           0
     27343 TIP3     3323     TIP3     H2       HT       0.417000       1.00800           0
     27344 TIP3     3324     TIP3     OH2      OT      -0.834000       15.9994           0
     27345 TIP3     3324     TIP3     H1       HT       0.417000       1.00800           0
     27346 TIP3     3324     TIP3     H2       HT       0.417000       1.00800           0
     27347 TIP3     3325     TIP3     OH2      OT      -0.834000       15.9994           0
     27348 TIP3     3325     TIP3     H1       HT       0.417000       1.00800           0
     27349 TIP3     3325     TIP3     H2       HT       0.417000       1.00800           0
     27350 TIP3     3326     TIP3     OH2      OT      -0.834000       15.9994           0
     27351 TIP3     3326     TIP3     H1       HT       0.417000       1.00800           0
     27352 TIP3     3326     TIP3     H2       HT       0.417000       1.00800           0
     27353 TIP3     3327     TIP3     OH2      OT      -0.834000       15.9994           0
     27354 TIP3     3327     TIP3     H1       HT       0.417000       1.00800           0
     27355 TIP3     3327     TIP3     H2       HT       0.417000       1.00800           0
     27356 TIP3     3328     TIP3     OH2      OT      -0.834000       15.9994           0
     27357 TIP3     3328     TIP3     H1       HT       0.417000       1.00800           0
     27358 TIP3     3328     TIP3     H2       HT       0.417000       1.00800           0
     27359 TIP3     3329     TIP3     OH2      OT      -0.834000       15.9994           0
     27360 TIP3     3329     TIP3     H1       HT       0.417000       1.00800           0
     27361 TIP3     3329     TIP3     H2       HT       0.417000       1.00800           0
     27362 TIP3     3330     TIP3     OH2      OT      -0.834000       15.9994           0
     27363 TIP3     3330     TIP3     H1       HT       0.417000       1.00800           0
     27364 TIP3     3330     TIP3     H2       HT       0.417000       1.00800           0
     27365 TIP3     3331     TIP3     OH2      OT      -0.834000       15.9994           0
     27366 TIP3     3331     TIP3     H1       HT       0.417000       1.00800           0
     27367 TIP3     3331     TIP3     H2       HT       0.417000       1.00800           0
     27368 TIP3     3332     TIP3     OH2      OT      -0.834000       15.9994           0
     27369 TIP3     3332     TIP3     H1       HT       0.417000       1.00800           0
     27370 TIP3     3332     TIP3     H2       HT       0.417000       1.00800           0
     27371 TIP3     3333     TIP3     OH2      OT      -0.834000       15.9994           0
     27372 TIP3     3333     TIP3     H1       HT       0.417000       1.00800           0
     27373 TIP3     3333     TIP3     H2       HT       0.417000       1.00800           0
     27374 TIP3     3334     TIP3     OH2      OT      -0.834000       15.9994           0
     27375 TIP3     3334     TIP3     H1       HT       0.417000       1.00800           0
     27376 TIP3     3334     TIP3     H2       HT       0.417000       1.00800           0
     27377 TIP3     3335     TIP3     OH2      OT      -0.834000       15.9994           0
     27378 TIP3     3335     TIP3     H1       HT       0.417000       1.00800           0
     27379 TIP3     3335     TIP3     H2       HT       0.417000       1.00800           0
     27380 TIP3     3336     TIP3     OH2      OT      -0.834000       15.9994           0
     27381 TIP3     3336     TIP3     H1       HT       0.417000       1.00800           0
     27382 TIP3     3336     TIP3     H2       HT       0.417000       1.00800           0
     27383 TIP3     3337     TIP3     OH2      OT      -0.834000       15.9994           0
     27384 TIP3     3337     TIP3     H1       HT       0.417000       1.00800           0
     27385 TIP3     3337     TIP3     H2       HT       0.417000       1.00800           0
     27386 TIP3     3338     TIP3     OH2      OT      -0.834000       15.9994           0
     27387 TIP3     3338     TIP3     H1       HT       0.417000       1.00800           0
     27388 TIP3     3338     TIP3     H2       HT       0.417000       1.00800           0
     27389 TIP3     3339     TIP3     OH2      OT      -0.834000       15.9994           0
     27390 TIP3     3339     TIP3     H1       HT       0.417000       1.00800           0
     27391 TIP3     3339     TIP3     H2       HT       0.417000       1.00800           0
     27392 TIP3     3340     TIP3     OH2      OT      -0.834000       15.9994           0
     27393 TIP3     3340     TIP3     H1       HT       0.417000       1.00800           0
     27394 TIP3     3340     TIP3     H2       HT       0.417000       1.00800           0
     27395 TIP3     3341     TIP3     OH2      OT      -0.834000       15.9994           0
     27396 TIP3     3341     TIP3     H1       HT       0.417000       1.00800           0
     27397 TIP3     3341     TIP3     H2       HT       0.417000       1.00800           0
     27398 TIP3     3342     TIP3     OH2      OT      -0.834000       15.9994           0
     27399 TIP3     3342     TIP3     H1       HT       0.417000       1.00800           0
     27400 TIP3     3342     TIP3     H2       HT       0.417000       1.00800           0
     27401 TIP3     3343     TIP3     OH2      OT      -0.834000       15.9994           0
     27402 TIP3     3343     TIP3     H1       HT       0.417000       1.00800           0
     27403 TIP3     3343     TIP3     H2       HT       0.417000       1.00800           0
     27404 TIP3     3344     TIP3     OH2      OT      -0.834000       15.9994           0
     27405 TIP3     3344     TIP3     H1       HT       0.417000       1.00800           0
     27406 TIP3     3344     TIP3     H2       HT       0.417000       1.00800           0
     27407 TIP3     3345     TIP3     OH2      OT      -0.834000       15.9994           0
     27408 TIP3     3345     TIP3     H1       HT       0.417000       1.00800           0
     27409 TIP3     3345     TIP3     H2       HT       0.417000       1.00800           0
     27410 TIP3     3346     TIP3     OH2      OT      -0.834000       15.9994           0
     27411 TIP3     3346     TIP3     H1       HT       0.417000       1.00800           0
     27412 TIP3     3346     TIP3     H2       HT       0.417000       1.00800           0
     27413 TIP3     3347     TIP3     OH2      OT      -0.834000       15.9994           0
     27414 TIP3     3347     TIP3     H1       HT       0.417000       1.00800           0
     27415 TIP3     3347     TIP3     H2       HT       0.417000       1.00800           0
     27416 TIP3     3348     TIP3     OH2      OT      -0.834000       15.9994           0
     27417 TIP3     3348     TIP3     H1       HT       0.417000       1.00800           0
     27418 TIP3     3348     TIP3     H2       HT       0.417000       1.00800           0
     27419 TIP3     3349     TIP3     OH2      OT      -0.834000       15.9994           0
     27420 TIP3     3349     TIP3     H1       HT       0.417000       1.00800           0
     27421 TIP3     3349     TIP3     H2       HT       0.417000       1.00800           0
     27422 TIP3     3350     TIP3     OH2      OT      -0.834000       15.9994           0
     27423 TIP3     3350     TIP3     H1       HT       0.417000       1.00800           0
     27424 TIP3     3350     TIP3     H2       HT       0.417000       1.00800           0
     27425 TIP3     3351     TIP3     OH2      OT      -0.834000       15.9994           0
     27426 TIP3     3351     TIP3     H1       HT       0.417000       1.00800           0
     27427 TIP3     3351     TIP3     H2       HT       0.417000       1.00800           0
     27428 TIP3     3352     TIP3     OH2      OT      -0.834000       15.9994           0
     27429 TIP3     3352     TIP3     H1       HT       0.417000       1.00800           0
     27430 TIP3     3352     TIP3     H2       HT       0.417000       1.00800           0
     27431 TIP3     3353     TIP3     OH2      OT      -0.834000       15.9994           0
     27432 TIP3     3353     TIP3     H1       HT       0.417000       1.00800           0
     27433 TIP3     3353     TIP3     H2       HT       0.417000       1.00800           0
     27434 TIP3     3354     TIP3     OH2      OT      -0.834000       15.9994           0
     27435 TIP3     3354     TIP3     H1       HT       0.417000       1.00800           0
     27436 TIP3     3354     TIP3     H2       HT       0.417000       1.00800           0
     27437 TIP3     3355     TIP3     OH2      OT      -0.834000       15.9994           0
     27438 TIP3     3355     TIP3     H1       HT       0.417000       1.00800           0
     27439 TIP3     3355     TIP3     H2       HT       0.417000       1.00800           0
     27440 TIP3     3356     TIP3     OH2      OT      -0.834000       15.9994           0
     27441 TIP3     3356     TIP3     H1       HT       0.417000       1.00800           0
     27442 TIP3     3356     TIP3     H2       HT       0.417000       1.00800           0
     27443 TIP3     3357     TIP3     OH2      OT      -0.834000       15.9994           0
     27444 TIP3     3357     TIP3     H1       HT       0.417000       1.00800           0
     27445 TIP3     3357     TIP3     H2       HT       0.417000       1.00800           0
     27446 TIP3     3358     TIP3     OH2      OT      -0.834000       15.9994           0
     27447 TIP3     3358     TIP3     H1       HT       0.417000       1.00800           0
     27448 TIP3     3358     TIP3     H2       HT       0.417000       1.00800           0
     27449 TIP3     3359     TIP3     OH2      OT      -0.834000       15.9994           0
     27450 TIP3     3359     TIP3     H1       HT       0.417000       1.00800           0
     27451 TIP3     3359     TIP3     H2       HT       0.417000       1.00800           0
     27452 TIP3     3360     TIP3     OH2      OT      -0.834000       15.9994           0
     27453 TIP3     3360     TIP3     H1       HT       0.417000       1.00800           0
     27454 TIP3     3360     TIP3     H2       HT       0.417000       1.00800           0
     27455 TIP3     3361     TIP3     OH2      OT      -0.834000       15.9994           0
     27456 TIP3     3361     TIP3     H1       HT       0.417000       1.00800           0
     27457 TIP3     3361     TIP3     H2       HT       0.417000       1.00800           0
     27458 TIP3     3362     TIP3     OH2      OT      -0.834000       15.9994           0
     27459 TIP3     3362     TIP3     H1       HT       0.417000       1.00800           0
     27460 TIP3     3362     TIP3     H2       HT       0.417000       1.00800           0
     27461 TIP3     3363     TIP3     OH2      OT      -0.834000       15.9994           0
     27462 TIP3     3363     TIP3     H1       HT       0.417000       1.00800           0
     27463 TIP3     3363     TIP3     H2       HT       0.417000       1.00800           0
     27464 TIP3     3364     TIP3     OH2      OT      -0.834000       15.9994           0
     27465 TIP3     3364     TIP3     H1       HT       0.417000       1.00800           0
     27466 TIP3     3364     TIP3     H2       HT       0.417000       1.00800           0
     27467 TIP3     3365     TIP3     OH2      OT      -0.834000       15.9994           0
     27468 TIP3     3365     TIP3     H1       HT       0.417000       1.00800           0
     27469 TIP3     3365     TIP3     H2       HT       0.417000       1.00800           0
     27470 TIP3     3366     TIP3     OH2      OT      -0.834000       15.9994           0
     27471 TIP3     3366     TIP3     H1       HT       0.417000       1.00800           0
     27472 TIP3     3366     TIP3     H2       HT       0.417000       1.00800           0
     27473 TIP3     3367     TIP3     OH2      OT      -0.834000       15.9994           0
     27474 TIP3     3367     TIP3     H1       HT       0.417000       1.00800           0
     27475 TIP3     3367     TIP3     H2       HT       0.417000       1.00800           0
     27476 TIP3     3368     TIP3     OH2      OT      -0.834000       15.9994           0
     27477 TIP3     3368     TIP3     H1       HT       0.417000       1.00800           0
     27478 TIP3     3368     TIP3     H2       HT       0.417000       1.00800           0
     27479 TIP3     3369     TIP3     OH2      OT      -0.834000       15.9994           0
     27480 TIP3     3369     TIP3     H1       HT       0.417000       1.00800           0
     27481 TIP3     3369     TIP3     H2       HT       0.417000       1.00800           0
     27482 TIP3     3370     TIP3     OH2      OT      -0.834000       15.9994           0
     27483 TIP3     3370     TIP3     H1       HT       0.417000       1.00800           0
     27484 TIP3     3370     TIP3     H2       HT       0.417000       1.00800           0
     27485 TIP3     3371     TIP3     OH2      OT      -0.834000       15.9994           0
     27486 TIP3     3371     TIP3     H1       HT       0.417000       1.00800           0
     27487 TIP3     3371     TIP3     H2       HT       0.417000       1.00800           0
     27488 TIP3     3372     TIP3     OH2      OT      -0.834000       15.9994           0
     27489 TIP3     3372     TIP3     H1       HT       0.417000       1.00800           0
     27490 TIP3     3372     TIP3     H2       HT       0.417000       1.00800           0
     27491 TIP3     3373     TIP3     OH2      OT      -0.834000       15.9994           0
     27492 TIP3     3373     TIP3     H1       HT       0.417000       1.00800           0
     27493 TIP3     3373     TIP3     H2       HT       0.417000       1.00800           0
     27494 TIP3     3374     TIP3     OH2      OT      -0.834000       15.9994           0
     27495 TIP3     3374     TIP3     H1       HT       0.417000       1.00800           0
     27496 TIP3     3374     TIP3     H2       HT       0.417000       1.00800           0
     27497 TIP3     3375     TIP3     OH2      OT      -0.834000       15.9994           0
     27498 TIP3     3375     TIP3     H1       HT       0.417000       1.00800           0
     27499 TIP3     3375     TIP3     H2       HT       0.417000       1.00800           0
     27500 TIP3     3376     TIP3     OH2      OT      -0.834000       15.9994           0
     27501 TIP3     3376     TIP3     H1       HT       0.417000       1.00800           0
     27502 TIP3     3376     TIP3     H2       HT       0.417000       1.00800           0
     27503 TIP3     3377     TIP3     OH2      OT      -0.834000       15.9994           0
     27504 TIP3     3377     TIP3     H1       HT       0.417000       1.00800           0
     27505 TIP3     3377     TIP3     H2       HT       0.417000       1.00800           0
     27506 TIP3     3378     TIP3     OH2      OT      -0.834000       15.9994           0
     27507 TIP3     3378     TIP3     H1       HT       0.417000       1.00800           0
     27508 TIP3     3378     TIP3     H2       HT       0.417000       1.00800           0
     27509 TIP3     3379     TIP3     OH2      OT      -0.834000       15.9994           0
     27510 TIP3     3379     TIP3     H1       HT       0.417000       1.00800           0
     27511 TIP3     3379     TIP3     H2       HT       0.417000       1.00800           0
     27512 TIP3     3380     TIP3     OH2      OT      -0.834000       15.9994           0
     27513 TIP3     3380     TIP3     H1       HT       0.417000       1.00800           0
     27514 TIP3     3380     TIP3     H2       HT       0.417000       1.00800           0
     27515 TIP3     3381     TIP3     OH2      OT      -0.834000       15.9994           0
     27516 TIP3     3381     TIP3     H1       HT       0.417000       1.00800           0
     27517 TIP3     3381     TIP3     H2       HT       0.417000       1.00800           0
     27518 TIP3     3382     TIP3     OH2      OT      -0.834000       15.9994           0
     27519 TIP3     3382     TIP3     H1       HT       0.417000       1.00800           0
     27520 TIP3     3382     TIP3     H2       HT       0.417000       1.00800           0
     27521 TIP3     3383     TIP3     OH2      OT      -0.834000       15.9994           0
     27522 TIP3     3383     TIP3     H1       HT       0.417000       1.00800           0
     27523 TIP3     3383     TIP3     H2       HT       0.417000       1.00800           0
     27524 TIP3     3384     TIP3     OH2      OT      -0.834000       15.9994           0
     27525 TIP3     3384     TIP3     H1       HT       0.417000       1.00800           0
     27526 TIP3     3384     TIP3     H2       HT       0.417000       1.00800           0
     27527 TIP3     3385     TIP3     OH2      OT      -0.834000       15.9994           0
     27528 TIP3     3385     TIP3     H1       HT       0.417000       1.00800           0
     27529 TIP3     3385     TIP3     H2       HT       0.417000       1.00800           0
     27530 TIP3     3386     TIP3     OH2      OT      -0.834000       15.9994           0
     27531 TIP3     3386     TIP3     H1       HT       0.417000       1.00800           0
     27532 TIP3     3386     TIP3     H2       HT       0.417000       1.00800           0
     27533 TIP3     3387     TIP3     OH2      OT      -0.834000       15.9994           0
     27534 TIP3     3387     TIP3     H1       HT       0.417000       1.00800           0
     27535 TIP3     3387     TIP3     H2       HT       0.417000       1.00800           0
     27536 TIP3     3388     TIP3     OH2      OT      -0.834000       15.9994           0
     27537 TIP3     3388     TIP3     H1       HT       0.417000       1.00800           0
     27538 TIP3     3388     TIP3     H2       HT       0.417000       1.00800           0
     27539 TIP3     3389     TIP3     OH2      OT      -0.834000       15.9994           0
     27540 TIP3     3389     TIP3     H1       HT       0.417000       1.00800           0
     27541 TIP3     3389     TIP3     H2       HT       0.417000       1.00800           0
     27542 TIP3     3390     TIP3     OH2      OT      -0.834000       15.9994           0
     27543 TIP3     3390     TIP3     H1       HT       0.417000       1.00800           0
     27544 TIP3     3390     TIP3     H2       HT       0.417000       1.00800           0
     27545 TIP3     3391     TIP3     OH2      OT      -0.834000       15.9994           0
     27546 TIP3     3391     TIP3     H1       HT       0.417000       1.00800           0
     27547 TIP3     3391     TIP3     H2       HT       0.417000       1.00800           0
     27548 TIP3     3392     TIP3     OH2      OT      -0.834000       15.9994           0
     27549 TIP3     3392     TIP3     H1       HT       0.417000       1.00800           0
     27550 TIP3     3392     TIP3     H2       HT       0.417000       1.00800           0
     27551 TIP3     3393     TIP3     OH2      OT      -0.834000       15.9994           0
     27552 TIP3     3393     TIP3     H1       HT       0.417000       1.00800           0
     27553 TIP3     3393     TIP3     H2       HT       0.417000       1.00800           0
     27554 TIP3     3394     TIP3     OH2      OT      -0.834000       15.9994           0
     27555 TIP3     3394     TIP3     H1       HT       0.417000       1.00800           0
     27556 TIP3     3394     TIP3     H2       HT       0.417000       1.00800           0
     27557 TIP3     3395     TIP3     OH2      OT      -0.834000       15.9994           0
     27558 TIP3     3395     TIP3     H1       HT       0.417000       1.00800           0
     27559 TIP3     3395     TIP3     H2       HT       0.417000       1.00800           0
     27560 TIP3     3396     TIP3     OH2      OT      -0.834000       15.9994           0
     27561 TIP3     3396     TIP3     H1       HT       0.417000       1.00800           0
     27562 TIP3     3396     TIP3     H2       HT       0.417000       1.00800           0
     27563 TIP3     3397     TIP3     OH2      OT      -0.834000       15.9994           0
     27564 TIP3     3397     TIP3     H1       HT       0.417000       1.00800           0
     27565 TIP3     3397     TIP3     H2       HT       0.417000       1.00800           0
     27566 TIP3     3398     TIP3     OH2      OT      -0.834000       15.9994           0
     27567 TIP3     3398     TIP3     H1       HT       0.417000       1.00800           0
     27568 TIP3     3398     TIP3     H2       HT       0.417000       1.00800           0
     27569 TIP3     3399     TIP3     OH2      OT      -0.834000       15.9994           0
     27570 TIP3     3399     TIP3     H1       HT       0.417000       1.00800           0
     27571 TIP3     3399     TIP3     H2       HT       0.417000       1.00800           0
     27572 TIP3     3400     TIP3     OH2      OT      -0.834000       15.9994           0
     27573 TIP3     3400     TIP3     H1       HT       0.417000       1.00800           0
     27574 TIP3     3400     TIP3     H2       HT       0.417000       1.00800           0
     27575 TIP3     3401     TIP3     OH2      OT      -0.834000       15.9994           0
     27576 TIP3     3401     TIP3     H1       HT       0.417000       1.00800           0
     27577 TIP3     3401     TIP3     H2       HT       0.417000       1.00800           0
     27578 TIP3     3402     TIP3     OH2      OT      -0.834000       15.9994           0
     27579 TIP3     3402     TIP3     H1       HT       0.417000       1.00800           0
     27580 TIP3     3402     TIP3     H2       HT       0.417000       1.00800           0
     27581 TIP3     3403     TIP3     OH2      OT      -0.834000       15.9994           0
     27582 TIP3     3403     TIP3     H1       HT       0.417000       1.00800           0
     27583 TIP3     3403     TIP3     H2       HT       0.417000       1.00800           0
     27584 TIP3     3404     TIP3     OH2      OT      -0.834000       15.9994           0
     27585 TIP3     3404     TIP3     H1       HT       0.417000       1.00800           0
     27586 TIP3     3404     TIP3     H2       HT       0.417000       1.00800           0
     27587 TIP3     3405     TIP3     OH2      OT      -0.834000       15.9994           0
     27588 TIP3     3405     TIP3     H1       HT       0.417000       1.00800           0
     27589 TIP3     3405     TIP3     H2       HT       0.417000       1.00800           0
     27590 TIP3     3406     TIP3     OH2      OT      -0.834000       15.9994           0
     27591 TIP3     3406     TIP3     H1       HT       0.417000       1.00800           0
     27592 TIP3     3406     TIP3     H2       HT       0.417000       1.00800           0
     27593 TIP3     3407     TIP3     OH2      OT      -0.834000       15.9994           0
     27594 TIP3     3407     TIP3     H1       HT       0.417000       1.00800           0
     27595 TIP3     3407     TIP3     H2       HT       0.417000       1.00800           0
     27596 TIP3     3408     TIP3     OH2      OT      -0.834000       15.9994           0
     27597 TIP3     3408     TIP3     H1       HT       0.417000       1.00800           0
     27598 TIP3     3408     TIP3     H2       HT       0.417000       1.00800           0
     27599 TIP3     3409     TIP3     OH2      OT      -0.834000       15.9994           0
     27600 TIP3     3409     TIP3     H1       HT       0.417000       1.00800           0
     27601 TIP3     3409     TIP3     H2       HT       0.417000       1.00800           0
     27602 TIP3     3410     TIP3     OH2      OT      -0.834000       15.9994           0
     27603 TIP3     3410     TIP3     H1       HT       0.417000       1.00800           0
     27604 TIP3     3410     TIP3     H2       HT       0.417000       1.00800           0
     27605 TIP3     3411     TIP3     OH2      OT      -0.834000       15.9994           0
     27606 TIP3     3411     TIP3     H1       HT       0.417000       1.00800           0
     27607 TIP3     3411     TIP3     H2       HT       0.417000       1.00800           0
     27608 TIP3     3412     TIP3     OH2      OT      -0.834000       15.9994           0
     27609 TIP3     3412     TIP3     H1       HT       0.417000       1.00800           0
     27610 TIP3     3412     TIP3     H2       HT       0.417000       1.00800           0
     27611 TIP3     3413     TIP3     OH2      OT      -0.834000       15.9994           0
     27612 TIP3     3413     TIP3     H1       HT       0.417000       1.00800           0
     27613 TIP3     3413     TIP3     H2       HT       0.417000       1.00800           0
     27614 TIP3     3414     TIP3     OH2      OT      -0.834000       15.9994           0
     27615 TIP3     3414     TIP3     H1       HT       0.417000       1.00800           0
     27616 TIP3     3414     TIP3     H2       HT       0.417000       1.00800           0
     27617 TIP3     3415     TIP3     OH2      OT      -0.834000       15.9994           0
     27618 TIP3     3415     TIP3     H1       HT       0.417000       1.00800           0
     27619 TIP3     3415     TIP3     H2       HT       0.417000       1.00800           0
     27620 TIP3     3416     TIP3     OH2      OT      -0.834000       15.9994           0
     27621 TIP3     3416     TIP3     H1       HT       0.417000       1.00800           0
     27622 TIP3     3416     TIP3     H2       HT       0.417000       1.00800           0
     27623 TIP3     3417     TIP3     OH2      OT      -0.834000       15.9994           0
     27624 TIP3     3417     TIP3     H1       HT       0.417000       1.00800           0
     27625 TIP3     3417     TIP3     H2       HT       0.417000       1.00800           0
     27626 TIP3     3418     TIP3     OH2      OT      -0.834000       15.9994           0
     27627 TIP3     3418     TIP3     H1       HT       0.417000       1.00800           0
     27628 TIP3     3418     TIP3     H2       HT       0.417000       1.00800           0
     27629 TIP3     3419     TIP3     OH2      OT      -0.834000       15.9994           0
     27630 TIP3     3419     TIP3     H1       HT       0.417000       1.00800           0
     27631 TIP3     3419     TIP3     H2       HT       0.417000       1.00800           0
     27632 TIP3     3420     TIP3     OH2      OT      -0.834000       15.9994           0
     27633 TIP3     3420     TIP3     H1       HT       0.417000       1.00800           0
     27634 TIP3     3420     TIP3     H2       HT       0.417000       1.00800           0
     27635 TIP3     3421     TIP3     OH2      OT      -0.834000       15.9994           0
     27636 TIP3     3421     TIP3     H1       HT       0.417000       1.00800           0
     27637 TIP3     3421     TIP3     H2       HT       0.417000       1.00800           0
     27638 TIP3     3422     TIP3     OH2      OT      -0.834000       15.9994           0
     27639 TIP3     3422     TIP3     H1       HT       0.417000       1.00800           0
     27640 TIP3     3422     TIP3     H2       HT       0.417000       1.00800           0
     27641 TIP3     3423     TIP3     OH2      OT      -0.834000       15.9994           0
     27642 TIP3     3423     TIP3     H1       HT       0.417000       1.00800           0
     27643 TIP3     3423     TIP3     H2       HT       0.417000       1.00800           0
     27644 TIP3     3424     TIP3     OH2      OT      -0.834000       15.9994           0
     27645 TIP3     3424     TIP3     H1       HT       0.417000       1.00800           0
     27646 TIP3     3424     TIP3     H2       HT       0.417000       1.00800           0
     27647 TIP3     3425     TIP3     OH2      OT      -0.834000       15.9994           0
     27648 TIP3     3425     TIP3     H1       HT       0.417000       1.00800           0
     27649 TIP3     3425     TIP3     H2       HT       0.417000       1.00800           0
     27650 TIP3     3426     TIP3     OH2      OT      -0.834000       15.9994           0
     27651 TIP3     3426     TIP3     H1       HT       0.417000       1.00800           0
     27652 TIP3     3426     TIP3     H2       HT       0.417000       1.00800           0
     27653 TIP3     3427     TIP3     OH2      OT      -0.834000       15.9994           0
     27654 TIP3     3427     TIP3     H1       HT       0.417000       1.00800           0
     27655 TIP3     3427     TIP3     H2       HT       0.417000       1.00800           0
     27656 TIP3     3428     TIP3     OH2      OT      -0.834000       15.9994           0
     27657 TIP3     3428     TIP3     H1       HT       0.417000       1.00800           0
     27658 TIP3     3428     TIP3     H2       HT       0.417000       1.00800           0
     27659 TIP3     3429     TIP3     OH2      OT      -0.834000       15.9994           0
     27660 TIP3     3429     TIP3     H1       HT       0.417000       1.00800           0
     27661 TIP3     3429     TIP3     H2       HT       0.417000       1.00800           0
     27662 TIP3     3430     TIP3     OH2      OT      -0.834000       15.9994           0
     27663 TIP3     3430     TIP3     H1       HT       0.417000       1.00800           0
     27664 TIP3     3430     TIP3     H2       HT       0.417000       1.00800           0
     27665 TIP3     3431     TIP3     OH2      OT      -0.834000       15.9994           0
     27666 TIP3     3431     TIP3     H1       HT       0.417000       1.00800           0
     27667 TIP3     3431     TIP3     H2       HT       0.417000       1.00800           0
     27668 TIP3     3432     TIP3     OH2      OT      -0.834000       15.9994           0
     27669 TIP3     3432     TIP3     H1       HT       0.417000       1.00800           0
     27670 TIP3     3432     TIP3     H2       HT       0.417000       1.00800           0
     27671 TIP3     3433     TIP3     OH2      OT      -0.834000       15.9994           0
     27672 TIP3     3433     TIP3     H1       HT       0.417000       1.00800           0
     27673 TIP3     3433     TIP3     H2       HT       0.417000       1.00800           0
     27674 TIP3     3434     TIP3     OH2      OT      -0.834000       15.9994           0
     27675 TIP3     3434     TIP3     H1       HT       0.417000       1.00800           0
     27676 TIP3     3434     TIP3     H2       HT       0.417000       1.00800           0
     27677 TIP3     3435     TIP3     OH2      OT      -0.834000       15.9994           0
     27678 TIP3     3435     TIP3     H1       HT       0.417000       1.00800           0
     27679 TIP3     3435     TIP3     H2       HT       0.417000       1.00800           0
     27680 TIP3     3436     TIP3     OH2      OT      -0.834000       15.9994           0
     27681 TIP3     3436     TIP3     H1       HT       0.417000       1.00800           0
     27682 TIP3     3436     TIP3     H2       HT       0.417000       1.00800           0
     27683 TIP3     3437     TIP3     OH2      OT      -0.834000       15.9994           0
     27684 TIP3     3437     TIP3     H1       HT       0.417000       1.00800           0
     27685 TIP3     3437     TIP3     H2       HT       0.417000       1.00800           0
     27686 TIP3     3438     TIP3     OH2      OT      -0.834000       15.9994           0
     27687 TIP3     3438     TIP3     H1       HT       0.417000       1.00800           0
     27688 TIP3     3438     TIP3     H2       HT       0.417000       1.00800           0
     27689 TIP3     3439     TIP3     OH2      OT      -0.834000       15.9994           0
     27690 TIP3     3439     TIP3     H1       HT       0.417000       1.00800           0
     27691 TIP3     3439     TIP3     H2       HT       0.417000       1.00800           0
     27692 TIP3     3440     TIP3     OH2      OT      -0.834000       15.9994           0
     27693 TIP3     3440     TIP3     H1       HT       0.417000       1.00800           0
     27694 TIP3     3440     TIP3     H2       HT       0.417000       1.00800           0
     27695 TIP3     3441     TIP3     OH2      OT      -0.834000       15.9994           0
     27696 TIP3     3441     TIP3     H1       HT       0.417000       1.00800           0
     27697 TIP3     3441     TIP3     H2       HT       0.417000       1.00800           0
     27698 TIP3     3442     TIP3     OH2      OT      -0.834000       15.9994           0
     27699 TIP3     3442     TIP3     H1       HT       0.417000       1.00800           0
     27700 TIP3     3442     TIP3     H2       HT       0.417000       1.00800           0
     27701 TIP3     3443     TIP3     OH2      OT      -0.834000       15.9994           0
     27702 TIP3     3443     TIP3     H1       HT       0.417000       1.00800           0
     27703 TIP3     3443     TIP3     H2       HT       0.417000       1.00800           0
     27704 TIP3     3444     TIP3     OH2      OT      -0.834000       15.9994           0
     27705 TIP3     3444     TIP3     H1       HT       0.417000       1.00800           0
     27706 TIP3     3444     TIP3     H2       HT       0.417000       1.00800           0
     27707 TIP3     3445     TIP3     OH2      OT      -0.834000       15.9994           0
     27708 TIP3     3445     TIP3     H1       HT       0.417000       1.00800           0
     27709 TIP3     3445     TIP3     H2       HT       0.417000       1.00800           0
     27710 TIP3     3446     TIP3     OH2      OT      -0.834000       15.9994           0
     27711 TIP3     3446     TIP3     H1       HT       0.417000       1.00800           0
     27712 TIP3     3446     TIP3     H2       HT       0.417000       1.00800           0
     27713 TIP3     3447     TIP3     OH2      OT      -0.834000       15.9994           0
     27714 TIP3     3447     TIP3     H1       HT       0.417000       1.00800           0
     27715 TIP3     3447     TIP3     H2       HT       0.417000       1.00800           0
     27716 TIP3     3448     TIP3     OH2      OT      -0.834000       15.9994           0
     27717 TIP3     3448     TIP3     H1       HT       0.417000       1.00800           0
     27718 TIP3     3448     TIP3     H2       HT       0.417000       1.00800           0
     27719 TIP3     3449     TIP3     OH2      OT      -0.834000       15.9994           0
     27720 TIP3     3449     TIP3     H1       HT       0.417000       1.00800           0
     27721 TIP3     3449     TIP3     H2       HT       0.417000       1.00800           0
     27722 TIP3     3450     TIP3     OH2      OT      -0.834000       15.9994           0
     27723 TIP3     3450     TIP3     H1       HT       0.417000       1.00800           0
     27724 TIP3     3450     TIP3     H2       HT       0.417000       1.00800           0
     27725 TIP3     3451     TIP3     OH2      OT      -0.834000       15.9994           0
     27726 TIP3     3451     TIP3     H1       HT       0.417000       1.00800           0
     27727 TIP3     3451     TIP3     H2       HT       0.417000       1.00800           0
     27728 TIP3     3452     TIP3     OH2      OT      -0.834000       15.9994           0
     27729 TIP3     3452     TIP3     H1       HT       0.417000       1.00800           0
     27730 TIP3     3452     TIP3     H2       HT       0.417000       1.00800           0
     27731 TIP3     3453     TIP3     OH2      OT      -0.834000       15.9994           0
     27732 TIP3     3453     TIP3     H1       HT       0.417000       1.00800           0
     27733 TIP3     3453     TIP3     H2       HT       0.417000       1.00800           0
     27734 TIP3     3454     TIP3     OH2      OT      -0.834000       15.9994           0
     27735 TIP3     3454     TIP3     H1       HT       0.417000       1.00800           0
     27736 TIP3     3454     TIP3     H2       HT       0.417000       1.00800           0
     27737 TIP3     3455     TIP3     OH2      OT      -0.834000       15.9994           0
     27738 TIP3     3455     TIP3     H1       HT       0.417000       1.00800           0
     27739 TIP3     3455     TIP3     H2       HT       0.417000       1.00800           0
     27740 TIP3     3456     TIP3     OH2      OT      -0.834000       15.9994           0
     27741 TIP3     3456     TIP3     H1       HT       0.417000       1.00800           0
     27742 TIP3     3456     TIP3     H2       HT       0.417000       1.00800           0
     27743 TIP3     3457     TIP3     OH2      OT      -0.834000       15.9994           0
     27744 TIP3     3457     TIP3     H1       HT       0.417000       1.00800           0
     27745 TIP3     3457     TIP3     H2       HT       0.417000       1.00800           0
     27746 TIP3     3458     TIP3     OH2      OT      -0.834000       15.9994           0
     27747 TIP3     3458     TIP3     H1       HT       0.417000       1.00800           0
     27748 TIP3     3458     TIP3     H2       HT       0.417000       1.00800           0
     27749 TIP3     3459     TIP3     OH2      OT      -0.834000       15.9994           0
     27750 TIP3     3459     TIP3     H1       HT       0.417000       1.00800           0
     27751 TIP3     3459     TIP3     H2       HT       0.417000       1.00800           0
     27752 TIP3     3460     TIP3     OH2      OT      -0.834000       15.9994           0
     27753 TIP3     3460     TIP3     H1       HT       0.417000       1.00800           0
     27754 TIP3     3460     TIP3     H2       HT       0.417000       1.00800           0
     27755 TIP3     3461     TIP3     OH2      OT      -0.834000       15.9994           0
     27756 TIP3     3461     TIP3     H1       HT       0.417000       1.00800           0
     27757 TIP3     3461     TIP3     H2       HT       0.417000       1.00800           0
     27758 TIP3     3462     TIP3     OH2      OT      -0.834000       15.9994           0
     27759 TIP3     3462     TIP3     H1       HT       0.417000       1.00800           0
     27760 TIP3     3462     TIP3     H2       HT       0.417000       1.00800           0
     27761 TIP3     3463     TIP3     OH2      OT      -0.834000       15.9994           0
     27762 TIP3     3463     TIP3     H1       HT       0.417000       1.00800           0
     27763 TIP3     3463     TIP3     H2       HT       0.417000       1.00800           0
     27764 TIP3     3464     TIP3     OH2      OT      -0.834000       15.9994           0
     27765 TIP3     3464     TIP3     H1       HT       0.417000       1.00800           0
     27766 TIP3     3464     TIP3     H2       HT       0.417000       1.00800           0
     27767 TIP3     3465     TIP3     OH2      OT      -0.834000       15.9994           0
     27768 TIP3     3465     TIP3     H1       HT       0.417000       1.00800           0
     27769 TIP3     3465     TIP3     H2       HT       0.417000       1.00800           0
     27770 TIP3     3466     TIP3     OH2      OT      -0.834000       15.9994           0
     27771 TIP3     3466     TIP3     H1       HT       0.417000       1.00800           0
     27772 TIP3     3466     TIP3     H2       HT       0.417000       1.00800           0
     27773 TIP3     3467     TIP3     OH2      OT      -0.834000       15.9994           0
     27774 TIP3     3467     TIP3     H1       HT       0.417000       1.00800           0
     27775 TIP3     3467     TIP3     H2       HT       0.417000       1.00800           0
     27776 TIP3     3468     TIP3     OH2      OT      -0.834000       15.9994           0
     27777 TIP3     3468     TIP3     H1       HT       0.417000       1.00800           0
     27778 TIP3     3468     TIP3     H2       HT       0.417000       1.00800           0
     27779 TIP3     3469     TIP3     OH2      OT      -0.834000       15.9994           0
     27780 TIP3     3469     TIP3     H1       HT       0.417000       1.00800           0
     27781 TIP3     3469     TIP3     H2       HT       0.417000       1.00800           0
     27782 TIP3     3470     TIP3     OH2      OT      -0.834000       15.9994           0
     27783 TIP3     3470     TIP3     H1       HT       0.417000       1.00800           0
     27784 TIP3     3470     TIP3     H2       HT       0.417000       1.00800           0
     27785 TIP3     3471     TIP3     OH2      OT      -0.834000       15.9994           0
     27786 TIP3     3471     TIP3     H1       HT       0.417000       1.00800           0
     27787 TIP3     3471     TIP3     H2       HT       0.417000       1.00800           0
     27788 TIP3     3472     TIP3     OH2      OT      -0.834000       15.9994           0
     27789 TIP3     3472     TIP3     H1       HT       0.417000       1.00800           0
     27790 TIP3     3472     TIP3     H2       HT       0.417000       1.00800           0
     27791 TIP3     3473     TIP3     OH2      OT      -0.834000       15.9994           0
     27792 TIP3     3473     TIP3     H1       HT       0.417000       1.00800           0
     27793 TIP3     3473     TIP3     H2       HT       0.417000       1.00800           0
     27794 TIP3     3474     TIP3     OH2      OT      -0.834000       15.9994           0
     27795 TIP3     3474     TIP3     H1       HT       0.417000       1.00800           0
     27796 TIP3     3474     TIP3     H2       HT       0.417000       1.00800           0
     27797 TIP3     3475     TIP3     OH2      OT      -0.834000       15.9994           0
     27798 TIP3     3475     TIP3     H1       HT       0.417000       1.00800           0
     27799 TIP3     3475     TIP3     H2       HT       0.417000       1.00800           0
     27800 TIP3     3476     TIP3     OH2      OT      -0.834000       15.9994           0
     27801 TIP3     3476     TIP3     H1       HT       0.417000       1.00800           0
     27802 TIP3     3476     TIP3     H2       HT       0.417000       1.00800           0
     27803 TIP3     3477     TIP3     OH2      OT      -0.834000       15.9994           0
     27804 TIP3     3477     TIP3     H1       HT       0.417000       1.00800           0
     27805 TIP3     3477     TIP3     H2       HT       0.417000       1.00800           0
     27806 TIP3     3478     TIP3     OH2      OT      -0.834000       15.9994           0
     27807 TIP3     3478     TIP3     H1       HT       0.417000       1.00800           0
     27808 TIP3     3478     TIP3     H2       HT       0.417000       1.00800           0
     27809 TIP3     3479     TIP3     OH2      OT      -0.834000       15.9994           0
     27810 TIP3     3479     TIP3     H1       HT       0.417000       1.00800           0
     27811 TIP3     3479     TIP3     H2       HT       0.417000       1.00800           0
     27812 TIP3     3480     TIP3     OH2      OT      -0.834000       15.9994           0
     27813 TIP3     3480     TIP3     H1       HT       0.417000       1.00800           0
     27814 TIP3     3480     TIP3     H2       HT       0.417000       1.00800           0
     27815 TIP3     3481     TIP3     OH2      OT      -0.834000       15.9994           0
     27816 TIP3     3481     TIP3     H1       HT       0.417000       1.00800           0
     27817 TIP3     3481     TIP3     H2       HT       0.417000       1.00800           0
     27818 TIP3     3482     TIP3     OH2      OT      -0.834000       15.9994           0
     27819 TIP3     3482     TIP3     H1       HT       0.417000       1.00800           0
     27820 TIP3     3482     TIP3     H2       HT       0.417000       1.00800           0
     27821 TIP3     3483     TIP3     OH2      OT      -0.834000       15.9994           0
     27822 TIP3     3483     TIP3     H1       HT       0.417000       1.00800           0
     27823 TIP3     3483     TIP3     H2       HT       0.417000       1.00800           0
     27824 TIP3     3484     TIP3     OH2      OT      -0.834000       15.9994           0
     27825 TIP3     3484     TIP3     H1       HT       0.417000       1.00800           0
     27826 TIP3     3484     TIP3     H2       HT       0.417000       1.00800           0
     27827 TIP3     3485     TIP3     OH2      OT      -0.834000       15.9994           0
     27828 TIP3     3485     TIP3     H1       HT       0.417000       1.00800           0
     27829 TIP3     3485     TIP3     H2       HT       0.417000       1.00800           0
     27830 TIP3     3486     TIP3     OH2      OT      -0.834000       15.9994           0
     27831 TIP3     3486     TIP3     H1       HT       0.417000       1.00800           0
     27832 TIP3     3486     TIP3     H2       HT       0.417000       1.00800           0
     27833 TIP3     3487     TIP3     OH2      OT      -0.834000       15.9994           0
     27834 TIP3     3487     TIP3     H1       HT       0.417000       1.00800           0
     27835 TIP3     3487     TIP3     H2       HT       0.417000       1.00800           0
     27836 TIP3     3488     TIP3     OH2      OT      -0.834000       15.9994           0
     27837 TIP3     3488     TIP3     H1       HT       0.417000       1.00800           0
     27838 TIP3     3488     TIP3     H2       HT       0.417000       1.00800           0
     27839 TIP3     3489     TIP3     OH2      OT      -0.834000       15.9994           0
     27840 TIP3     3489     TIP3     H1       HT       0.417000       1.00800           0
     27841 TIP3     3489     TIP3     H2       HT       0.417000       1.00800           0
     27842 TIP3     3490     TIP3     OH2      OT      -0.834000       15.9994           0
     27843 TIP3     3490     TIP3     H1       HT       0.417000       1.00800           0
     27844 TIP3     3490     TIP3     H2       HT       0.417000       1.00800           0
     27845 TIP3     3491     TIP3     OH2      OT      -0.834000       15.9994           0
     27846 TIP3     3491     TIP3     H1       HT       0.417000       1.00800           0
     27847 TIP3     3491     TIP3     H2       HT       0.417000       1.00800           0
     27848 TIP3     3492     TIP3     OH2      OT      -0.834000       15.9994           0
     27849 TIP3     3492     TIP3     H1       HT       0.417000       1.00800           0
     27850 TIP3     3492     TIP3     H2       HT       0.417000       1.00800           0
     27851 TIP3     3493     TIP3     OH2      OT      -0.834000       15.9994           0
     27852 TIP3     3493     TIP3     H1       HT       0.417000       1.00800           0
     27853 TIP3     3493     TIP3     H2       HT       0.417000       1.00800           0
     27854 TIP3     3494     TIP3     OH2      OT      -0.834000       15.9994           0
     27855 TIP3     3494     TIP3     H1       HT       0.417000       1.00800           0
     27856 TIP3     3494     TIP3     H2       HT       0.417000       1.00800           0
     27857 TIP3     3495     TIP3     OH2      OT      -0.834000       15.9994           0
     27858 TIP3     3495     TIP3     H1       HT       0.417000       1.00800           0
     27859 TIP3     3495     TIP3     H2       HT       0.417000       1.00800           0
     27860 TIP3     3496     TIP3     OH2      OT      -0.834000       15.9994           0
     27861 TIP3     3496     TIP3     H1       HT       0.417000       1.00800           0
     27862 TIP3     3496     TIP3     H2       HT       0.417000       1.00800           0
     27863 TIP3     3497     TIP3     OH2      OT      -0.834000       15.9994           0
     27864 TIP3     3497     TIP3     H1       HT       0.417000       1.00800           0
     27865 TIP3     3497     TIP3     H2       HT       0.417000       1.00800           0
     27866 TIP3     3498     TIP3     OH2      OT      -0.834000       15.9994           0
     27867 TIP3     3498     TIP3     H1       HT       0.417000       1.00800           0
     27868 TIP3     3498     TIP3     H2       HT       0.417000       1.00800           0
     27869 TIP3     3499     TIP3     OH2      OT      -0.834000       15.9994           0
     27870 TIP3     3499     TIP3     H1       HT       0.417000       1.00800           0
     27871 TIP3     3499     TIP3     H2       HT       0.417000       1.00800           0
     27872 TIP3     3500     TIP3     OH2      OT      -0.834000       15.9994           0
     27873 TIP3     3500     TIP3     H1       HT       0.417000       1.00800           0
     27874 TIP3     3500     TIP3     H2       HT       0.417000       1.00800           0
     27875 TIP3     3501     TIP3     OH2      OT      -0.834000       15.9994           0
     27876 TIP3     3501     TIP3     H1       HT       0.417000       1.00800           0
     27877 TIP3     3501     TIP3     H2       HT       0.417000       1.00800           0
     27878 TIP3     3502     TIP3     OH2      OT      -0.834000       15.9994           0
     27879 TIP3     3502     TIP3     H1       HT       0.417000       1.00800           0
     27880 TIP3     3502     TIP3     H2       HT       0.417000       1.00800           0
     27881 TIP3     3503     TIP3     OH2      OT      -0.834000       15.9994           0
     27882 TIP3     3503     TIP3     H1       HT       0.417000       1.00800           0
     27883 TIP3     3503     TIP3     H2       HT       0.417000       1.00800           0
     27884 TIP3     3504     TIP3     OH2      OT      -0.834000       15.9994           0
     27885 TIP3     3504     TIP3     H1       HT       0.417000       1.00800           0
     27886 TIP3     3504     TIP3     H2       HT       0.417000       1.00800           0
     27887 TIP3     3505     TIP3     OH2      OT      -0.834000       15.9994           0
     27888 TIP3     3505     TIP3     H1       HT       0.417000       1.00800           0
     27889 TIP3     3505     TIP3     H2       HT       0.417000       1.00800           0
     27890 TIP3     3506     TIP3     OH2      OT      -0.834000       15.9994           0
     27891 TIP3     3506     TIP3     H1       HT       0.417000       1.00800           0
     27892 TIP3     3506     TIP3     H2       HT       0.417000       1.00800           0
     27893 TIP3     3507     TIP3     OH2      OT      -0.834000       15.9994           0
     27894 TIP3     3507     TIP3     H1       HT       0.417000       1.00800           0
     27895 TIP3     3507     TIP3     H2       HT       0.417000       1.00800           0
     27896 TIP3     3508     TIP3     OH2      OT      -0.834000       15.9994           0
     27897 TIP3     3508     TIP3     H1       HT       0.417000       1.00800           0
     27898 TIP3     3508     TIP3     H2       HT       0.417000       1.00800           0
     27899 TIP3     3509     TIP3     OH2      OT      -0.834000       15.9994           0
     27900 TIP3     3509     TIP3     H1       HT       0.417000       1.00800           0
     27901 TIP3     3509     TIP3     H2       HT       0.417000       1.00800           0
     27902 TIP3     3510     TIP3     OH2      OT      -0.834000       15.9994           0
     27903 TIP3     3510     TIP3     H1       HT       0.417000       1.00800           0
     27904 TIP3     3510     TIP3     H2       HT       0.417000       1.00800           0
     27905 TIP3     3511     TIP3     OH2      OT      -0.834000       15.9994           0
     27906 TIP3     3511     TIP3     H1       HT       0.417000       1.00800           0
     27907 TIP3     3511     TIP3     H2       HT       0.417000       1.00800           0
     27908 TIP3     3512     TIP3     OH2      OT      -0.834000       15.9994           0
     27909 TIP3     3512     TIP3     H1       HT       0.417000       1.00800           0
     27910 TIP3     3512     TIP3     H2       HT       0.417000       1.00800           0
     27911 TIP3     3513     TIP3     OH2      OT      -0.834000       15.9994           0
     27912 TIP3     3513     TIP3     H1       HT       0.417000       1.00800           0
     27913 TIP3     3513     TIP3     H2       HT       0.417000       1.00800           0
     27914 TIP3     3514     TIP3     OH2      OT      -0.834000       15.9994           0
     27915 TIP3     3514     TIP3     H1       HT       0.417000       1.00800           0
     27916 TIP3     3514     TIP3     H2       HT       0.417000       1.00800           0
     27917 TIP3     3515     TIP3     OH2      OT      -0.834000       15.9994           0
     27918 TIP3     3515     TIP3     H1       HT       0.417000       1.00800           0
     27919 TIP3     3515     TIP3     H2       HT       0.417000       1.00800           0
     27920 TIP3     3516     TIP3     OH2      OT      -0.834000       15.9994           0
     27921 TIP3     3516     TIP3     H1       HT       0.417000       1.00800           0
     27922 TIP3     3516     TIP3     H2       HT       0.417000       1.00800           0
     27923 TIP3     3517     TIP3     OH2      OT      -0.834000       15.9994           0
     27924 TIP3     3517     TIP3     H1       HT       0.417000       1.00800           0
     27925 TIP3     3517     TIP3     H2       HT       0.417000       1.00800           0
     27926 TIP3     3518     TIP3     OH2      OT      -0.834000       15.9994           0
     27927 TIP3     3518     TIP3     H1       HT       0.417000       1.00800           0
     27928 TIP3     3518     TIP3     H2       HT       0.417000       1.00800           0
     27929 TIP3     3519     TIP3     OH2      OT      -0.834000       15.9994           0
     27930 TIP3     3519     TIP3     H1       HT       0.417000       1.00800           0
     27931 TIP3     3519     TIP3     H2       HT       0.417000       1.00800           0
     27932 TIP3     3520     TIP3     OH2      OT      -0.834000       15.9994           0
     27933 TIP3     3520     TIP3     H1       HT       0.417000       1.00800           0
     27934 TIP3     3520     TIP3     H2       HT       0.417000       1.00800           0
     27935 TIP3     3521     TIP3     OH2      OT      -0.834000       15.9994           0
     27936 TIP3     3521     TIP3     H1       HT       0.417000       1.00800           0
     27937 TIP3     3521     TIP3     H2       HT       0.417000       1.00800           0
     27938 TIP3     3522     TIP3     OH2      OT      -0.834000       15.9994           0
     27939 TIP3     3522     TIP3     H1       HT       0.417000       1.00800           0
     27940 TIP3     3522     TIP3     H2       HT       0.417000       1.00800           0
     27941 TIP3     3523     TIP3     OH2      OT      -0.834000       15.9994           0
     27942 TIP3     3523     TIP3     H1       HT       0.417000       1.00800           0
     27943 TIP3     3523     TIP3     H2       HT       0.417000       1.00800           0
     27944 TIP3     3524     TIP3     OH2      OT      -0.834000       15.9994           0
     27945 TIP3     3524     TIP3     H1       HT       0.417000       1.00800           0
     27946 TIP3     3524     TIP3     H2       HT       0.417000       1.00800           0
     27947 TIP3     3525     TIP3     OH2      OT      -0.834000       15.9994           0
     27948 TIP3     3525     TIP3     H1       HT       0.417000       1.00800           0
     27949 TIP3     3525     TIP3     H2       HT       0.417000       1.00800           0
     27950 TIP3     3526     TIP3     OH2      OT      -0.834000       15.9994           0
     27951 TIP3     3526     TIP3     H1       HT       0.417000       1.00800           0
     27952 TIP3     3526     TIP3     H2       HT       0.417000       1.00800           0
     27953 TIP3     3527     TIP3     OH2      OT      -0.834000       15.9994           0
     27954 TIP3     3527     TIP3     H1       HT       0.417000       1.00800           0
     27955 TIP3     3527     TIP3     H2       HT       0.417000       1.00800           0
     27956 TIP3     3528     TIP3     OH2      OT      -0.834000       15.9994           0
     27957 TIP3     3528     TIP3     H1       HT       0.417000       1.00800           0
     27958 TIP3     3528     TIP3     H2       HT       0.417000       1.00800           0
     27959 TIP3     3529     TIP3     OH2      OT      -0.834000       15.9994           0
     27960 TIP3     3529     TIP3     H1       HT       0.417000       1.00800           0
     27961 TIP3     3529     TIP3     H2       HT       0.417000       1.00800           0
     27962 TIP3     3530     TIP3     OH2      OT      -0.834000       15.9994           0
     27963 TIP3     3530     TIP3     H1       HT       0.417000       1.00800           0
     27964 TIP3     3530     TIP3     H2       HT       0.417000       1.00800           0
     27965 TIP3     3531     TIP3     OH2      OT      -0.834000       15.9994           0
     27966 TIP3     3531     TIP3     H1       HT       0.417000       1.00800           0
     27967 TIP3     3531     TIP3     H2       HT       0.417000       1.00800           0
     27968 TIP3     3532     TIP3     OH2      OT      -0.834000       15.9994           0
     27969 TIP3     3532     TIP3     H1       HT       0.417000       1.00800           0
     27970 TIP3     3532     TIP3     H2       HT       0.417000       1.00800           0
     27971 TIP3     3533     TIP3     OH2      OT      -0.834000       15.9994           0
     27972 TIP3     3533     TIP3     H1       HT       0.417000       1.00800           0
     27973 TIP3     3533     TIP3     H2       HT       0.417000       1.00800           0
     27974 TIP3     3534     TIP3     OH2      OT      -0.834000       15.9994           0
     27975 TIP3     3534     TIP3     H1       HT       0.417000       1.00800           0
     27976 TIP3     3534     TIP3     H2       HT       0.417000       1.00800           0
     27977 TIP3     3535     TIP3     OH2      OT      -0.834000       15.9994           0
     27978 TIP3     3535     TIP3     H1       HT       0.417000       1.00800           0
     27979 TIP3     3535     TIP3     H2       HT       0.417000       1.00800           0
     27980 TIP3     3536     TIP3     OH2      OT      -0.834000       15.9994           0
     27981 TIP3     3536     TIP3     H1       HT       0.417000       1.00800           0
     27982 TIP3     3536     TIP3     H2       HT       0.417000       1.00800           0
     27983 TIP3     3537     TIP3     OH2      OT      -0.834000       15.9994           0
     27984 TIP3     3537     TIP3     H1       HT       0.417000       1.00800           0
     27985 TIP3     3537     TIP3     H2       HT       0.417000       1.00800           0
     27986 TIP3     3538     TIP3     OH2      OT      -0.834000       15.9994           0
     27987 TIP3     3538     TIP3     H1       HT       0.417000       1.00800           0
     27988 TIP3     3538     TIP3     H2       HT       0.417000       1.00800           0
     27989 TIP3     3539     TIP3     OH2      OT      -0.834000       15.9994           0
     27990 TIP3     3539     TIP3     H1       HT       0.417000       1.00800           0
     27991 TIP3     3539     TIP3     H2       HT       0.417000       1.00800           0
     27992 TIP3     3540     TIP3     OH2      OT      -0.834000       15.9994           0
     27993 TIP3     3540     TIP3     H1       HT       0.417000       1.00800           0
     27994 TIP3     3540     TIP3     H2       HT       0.417000       1.00800           0
     27995 TIP3     3541     TIP3     OH2      OT      -0.834000       15.9994           0
     27996 TIP3     3541     TIP3     H1       HT       0.417000       1.00800           0
     27997 TIP3     3541     TIP3     H2       HT       0.417000       1.00800           0
     27998 TIP3     3542     TIP3     OH2      OT      -0.834000       15.9994           0
     27999 TIP3     3542     TIP3     H1       HT       0.417000       1.00800           0
     28000 TIP3     3542     TIP3     H2       HT       0.417000       1.00800           0
     28001 TIP3     3543     TIP3     OH2      OT      -0.834000       15.9994           0
     28002 TIP3     3543     TIP3     H1       HT       0.417000       1.00800           0
     28003 TIP3     3543     TIP3     H2       HT       0.417000       1.00800           0
     28004 TIP3     3544     TIP3     OH2      OT      -0.834000       15.9994           0
     28005 TIP3     3544     TIP3     H1       HT       0.417000       1.00800           0
     28006 TIP3     3544     TIP3     H2       HT       0.417000       1.00800           0
     28007 TIP3     3545     TIP3     OH2      OT      -0.834000       15.9994           0
     28008 TIP3     3545     TIP3     H1       HT       0.417000       1.00800           0
     28009 TIP3     3545     TIP3     H2       HT       0.417000       1.00800           0
     28010 TIP3     3546     TIP3     OH2      OT      -0.834000       15.9994           0
     28011 TIP3     3546     TIP3     H1       HT       0.417000       1.00800           0
     28012 TIP3     3546     TIP3     H2       HT       0.417000       1.00800           0
     28013 TIP3     3547     TIP3     OH2      OT      -0.834000       15.9994           0
     28014 TIP3     3547     TIP3     H1       HT       0.417000       1.00800           0
     28015 TIP3     3547     TIP3     H2       HT       0.417000       1.00800           0
     28016 TIP3     3548     TIP3     OH2      OT      -0.834000       15.9994           0
     28017 TIP3     3548     TIP3     H1       HT       0.417000       1.00800           0
     28018 TIP3     3548     TIP3     H2       HT       0.417000       1.00800           0
     28019 TIP3     3549     TIP3     OH2      OT      -0.834000       15.9994           0
     28020 TIP3     3549     TIP3     H1       HT       0.417000       1.00800           0
     28021 TIP3     3549     TIP3     H2       HT       0.417000       1.00800           0
     28022 TIP3     3550     TIP3     OH2      OT      -0.834000       15.9994           0
     28023 TIP3     3550     TIP3     H1       HT       0.417000       1.00800           0
     28024 TIP3     3550     TIP3     H2       HT       0.417000       1.00800           0
     28025 TIP3     3551     TIP3     OH2      OT      -0.834000       15.9994           0
     28026 TIP3     3551     TIP3     H1       HT       0.417000       1.00800           0
     28027 TIP3     3551     TIP3     H2       HT       0.417000       1.00800           0
     28028 TIP3     3552     TIP3     OH2      OT      -0.834000       15.9994           0
     28029 TIP3     3552     TIP3     H1       HT       0.417000       1.00800           0
     28030 TIP3     3552     TIP3     H2       HT       0.417000       1.00800           0
     28031 TIP3     3553     TIP3     OH2      OT      -0.834000       15.9994           0
     28032 TIP3     3553     TIP3     H1       HT       0.417000       1.00800           0
     28033 TIP3     3553     TIP3     H2       HT       0.417000       1.00800           0
     28034 TIP3     3554     TIP3     OH2      OT      -0.834000       15.9994           0
     28035 TIP3     3554     TIP3     H1       HT       0.417000       1.00800           0
     28036 TIP3     3554     TIP3     H2       HT       0.417000       1.00800           0
     28037 TIP3     3555     TIP3     OH2      OT      -0.834000       15.9994           0
     28038 TIP3     3555     TIP3     H1       HT       0.417000       1.00800           0
     28039 TIP3     3555     TIP3     H2       HT       0.417000       1.00800           0
     28040 TIP3     3556     TIP3     OH2      OT      -0.834000       15.9994           0
     28041 TIP3     3556     TIP3     H1       HT       0.417000       1.00800           0
     28042 TIP3     3556     TIP3     H2       HT       0.417000       1.00800           0
     28043 TIP3     3557     TIP3     OH2      OT      -0.834000       15.9994           0
     28044 TIP3     3557     TIP3     H1       HT       0.417000       1.00800           0
     28045 TIP3     3557     TIP3     H2       HT       0.417000       1.00800           0
     28046 TIP3     3558     TIP3     OH2      OT      -0.834000       15.9994           0
     28047 TIP3     3558     TIP3     H1       HT       0.417000       1.00800           0
     28048 TIP3     3558     TIP3     H2       HT       0.417000       1.00800           0
     28049 TIP3     3559     TIP3     OH2      OT      -0.834000       15.9994           0
     28050 TIP3     3559     TIP3     H1       HT       0.417000       1.00800           0
     28051 TIP3     3559     TIP3     H2       HT       0.417000       1.00800           0
     28052 TIP3     3560     TIP3     OH2      OT      -0.834000       15.9994           0
     28053 TIP3     3560     TIP3     H1       HT       0.417000       1.00800           0
     28054 TIP3     3560     TIP3     H2       HT       0.417000       1.00800           0
     28055 TIP3     3561     TIP3     OH2      OT      -0.834000       15.9994           0
     28056 TIP3     3561     TIP3     H1       HT       0.417000       1.00800           0
     28057 TIP3     3561     TIP3     H2       HT       0.417000       1.00800           0
     28058 TIP3     3562     TIP3     OH2      OT      -0.834000       15.9994           0
     28059 TIP3     3562     TIP3     H1       HT       0.417000       1.00800           0
     28060 TIP3     3562     TIP3     H2       HT       0.417000       1.00800           0
     28061 TIP3     3563     TIP3     OH2      OT      -0.834000       15.9994           0
     28062 TIP3     3563     TIP3     H1       HT       0.417000       1.00800           0
     28063 TIP3     3563     TIP3     H2       HT       0.417000       1.00800           0
     28064 TIP3     3564     TIP3     OH2      OT      -0.834000       15.9994           0
     28065 TIP3     3564     TIP3     H1       HT       0.417000       1.00800           0
     28066 TIP3     3564     TIP3     H2       HT       0.417000       1.00800           0
     28067 TIP3     3565     TIP3     OH2      OT      -0.834000       15.9994           0
     28068 TIP3     3565     TIP3     H1       HT       0.417000       1.00800           0
     28069 TIP3     3565     TIP3     H2       HT       0.417000       1.00800           0
     28070 TIP3     3566     TIP3     OH2      OT      -0.834000       15.9994           0
     28071 TIP3     3566     TIP3     H1       HT       0.417000       1.00800           0
     28072 TIP3     3566     TIP3     H2       HT       0.417000       1.00800           0
     28073 TIP3     3567     TIP3     OH2      OT      -0.834000       15.9994           0
     28074 TIP3     3567     TIP3     H1       HT       0.417000       1.00800           0
     28075 TIP3     3567     TIP3     H2       HT       0.417000       1.00800           0
     28076 TIP3     3568     TIP3     OH2      OT      -0.834000       15.9994           0
     28077 TIP3     3568     TIP3     H1       HT       0.417000       1.00800           0
     28078 TIP3     3568     TIP3     H2       HT       0.417000       1.00800           0
     28079 TIP3     3569     TIP3     OH2      OT      -0.834000       15.9994           0
     28080 TIP3     3569     TIP3     H1       HT       0.417000       1.00800           0
     28081 TIP3     3569     TIP3     H2       HT       0.417000       1.00800           0
     28082 TIP3     3570     TIP3     OH2      OT      -0.834000       15.9994           0
     28083 TIP3     3570     TIP3     H1       HT       0.417000       1.00800           0
     28084 TIP3     3570     TIP3     H2       HT       0.417000       1.00800           0
     28085 TIP3     3571     TIP3     OH2      OT      -0.834000       15.9994           0
     28086 TIP3     3571     TIP3     H1       HT       0.417000       1.00800           0
     28087 TIP3     3571     TIP3     H2       HT       0.417000       1.00800           0
     28088 TIP3     3572     TIP3     OH2      OT      -0.834000       15.9994           0
     28089 TIP3     3572     TIP3     H1       HT       0.417000       1.00800           0
     28090 TIP3     3572     TIP3     H2       HT       0.417000       1.00800           0
     28091 TIP3     3573     TIP3     OH2      OT      -0.834000       15.9994           0
     28092 TIP3     3573     TIP3     H1       HT       0.417000       1.00800           0
     28093 TIP3     3573     TIP3     H2       HT       0.417000       1.00800           0
     28094 TIP3     3574     TIP3     OH2      OT      -0.834000       15.9994           0
     28095 TIP3     3574     TIP3     H1       HT       0.417000       1.00800           0
     28096 TIP3     3574     TIP3     H2       HT       0.417000       1.00800           0
     28097 TIP3     3575     TIP3     OH2      OT      -0.834000       15.9994           0
     28098 TIP3     3575     TIP3     H1       HT       0.417000       1.00800           0
     28099 TIP3     3575     TIP3     H2       HT       0.417000       1.00800           0
     28100 TIP3     3576     TIP3     OH2      OT      -0.834000       15.9994           0
     28101 TIP3     3576     TIP3     H1       HT       0.417000       1.00800           0
     28102 TIP3     3576     TIP3     H2       HT       0.417000       1.00800           0
     28103 TIP3     3577     TIP3     OH2      OT      -0.834000       15.9994           0
     28104 TIP3     3577     TIP3     H1       HT       0.417000       1.00800           0
     28105 TIP3     3577     TIP3     H2       HT       0.417000       1.00800           0
     28106 TIP3     3578     TIP3     OH2      OT      -0.834000       15.9994           0
     28107 TIP3     3578     TIP3     H1       HT       0.417000       1.00800           0
     28108 TIP3     3578     TIP3     H2       HT       0.417000       1.00800           0
     28109 TIP3     3579     TIP3     OH2      OT      -0.834000       15.9994           0
     28110 TIP3     3579     TIP3     H1       HT       0.417000       1.00800           0
     28111 TIP3     3579     TIP3     H2       HT       0.417000       1.00800           0
     28112 TIP3     3580     TIP3     OH2      OT      -0.834000       15.9994           0
     28113 TIP3     3580     TIP3     H1       HT       0.417000       1.00800           0
     28114 TIP3     3580     TIP3     H2       HT       0.417000       1.00800           0
     28115 TIP3     3581     TIP3     OH2      OT      -0.834000       15.9994           0
     28116 TIP3     3581     TIP3     H1       HT       0.417000       1.00800           0
     28117 TIP3     3581     TIP3     H2       HT       0.417000       1.00800           0
     28118 TIP3     3582     TIP3     OH2      OT      -0.834000       15.9994           0
     28119 TIP3     3582     TIP3     H1       HT       0.417000       1.00800           0
     28120 TIP3     3582     TIP3     H2       HT       0.417000       1.00800           0
     28121 TIP3     3583     TIP3     OH2      OT      -0.834000       15.9994           0
     28122 TIP3     3583     TIP3     H1       HT       0.417000       1.00800           0
     28123 TIP3     3583     TIP3     H2       HT       0.417000       1.00800           0
     28124 TIP3     3584     TIP3     OH2      OT      -0.834000       15.9994           0
     28125 TIP3     3584     TIP3     H1       HT       0.417000       1.00800           0
     28126 TIP3     3584     TIP3     H2       HT       0.417000       1.00800           0
     28127 TIP3     3585     TIP3     OH2      OT      -0.834000       15.9994           0
     28128 TIP3     3585     TIP3     H1       HT       0.417000       1.00800           0
     28129 TIP3     3585     TIP3     H2       HT       0.417000       1.00800           0
     28130 TIP3     3586     TIP3     OH2      OT      -0.834000       15.9994           0
     28131 TIP3     3586     TIP3     H1       HT       0.417000       1.00800           0
     28132 TIP3     3586     TIP3     H2       HT       0.417000       1.00800           0
     28133 TIP3     3587     TIP3     OH2      OT      -0.834000       15.9994           0
     28134 TIP3     3587     TIP3     H1       HT       0.417000       1.00800           0
     28135 TIP3     3587     TIP3     H2       HT       0.417000       1.00800           0
     28136 TIP3     3588     TIP3     OH2      OT      -0.834000       15.9994           0
     28137 TIP3     3588     TIP3     H1       HT       0.417000       1.00800           0
     28138 TIP3     3588     TIP3     H2       HT       0.417000       1.00800           0
     28139 TIP3     3589     TIP3     OH2      OT      -0.834000       15.9994           0
     28140 TIP3     3589     TIP3     H1       HT       0.417000       1.00800           0
     28141 TIP3     3589     TIP3     H2       HT       0.417000       1.00800           0
     28142 TIP3     3590     TIP3     OH2      OT      -0.834000       15.9994           0
     28143 TIP3     3590     TIP3     H1       HT       0.417000       1.00800           0
     28144 TIP3     3590     TIP3     H2       HT       0.417000       1.00800           0
     28145 TIP3     3591     TIP3     OH2      OT      -0.834000       15.9994           0
     28146 TIP3     3591     TIP3     H1       HT       0.417000       1.00800           0
     28147 TIP3     3591     TIP3     H2       HT       0.417000       1.00800           0
     28148 TIP3     3592     TIP3     OH2      OT      -0.834000       15.9994           0
     28149 TIP3     3592     TIP3     H1       HT       0.417000       1.00800           0
     28150 TIP3     3592     TIP3     H2       HT       0.417000       1.00800           0
     28151 TIP3     3593     TIP3     OH2      OT      -0.834000       15.9994           0
     28152 TIP3     3593     TIP3     H1       HT       0.417000       1.00800           0
     28153 TIP3     3593     TIP3     H2       HT       0.417000       1.00800           0
     28154 TIP3     3594     TIP3     OH2      OT      -0.834000       15.9994           0
     28155 TIP3     3594     TIP3     H1       HT       0.417000       1.00800           0
     28156 TIP3     3594     TIP3     H2       HT       0.417000       1.00800           0
     28157 TIP3     3595     TIP3     OH2      OT      -0.834000       15.9994           0
     28158 TIP3     3595     TIP3     H1       HT       0.417000       1.00800           0
     28159 TIP3     3595     TIP3     H2       HT       0.417000       1.00800           0
     28160 TIP3     3596     TIP3     OH2      OT      -0.834000       15.9994           0
     28161 TIP3     3596     TIP3     H1       HT       0.417000       1.00800           0
     28162 TIP3     3596     TIP3     H2       HT       0.417000       1.00800           0
     28163 TIP3     3597     TIP3     OH2      OT      -0.834000       15.9994           0
     28164 TIP3     3597     TIP3     H1       HT       0.417000       1.00800           0
     28165 TIP3     3597     TIP3     H2       HT       0.417000       1.00800           0
     28166 TIP3     3598     TIP3     OH2      OT      -0.834000       15.9994           0
     28167 TIP3     3598     TIP3     H1       HT       0.417000       1.00800           0
     28168 TIP3     3598     TIP3     H2       HT       0.417000       1.00800           0
     28169 TIP3     3599     TIP3     OH2      OT      -0.834000       15.9994           0
     28170 TIP3     3599     TIP3     H1       HT       0.417000       1.00800           0
     28171 TIP3     3599     TIP3     H2       HT       0.417000       1.00800           0
     28172 TIP3     3600     TIP3     OH2      OT      -0.834000       15.9994           0
     28173 TIP3     3600     TIP3     H1       HT       0.417000       1.00800           0
     28174 TIP3     3600     TIP3     H2       HT       0.417000       1.00800           0
     28175 TIP3     3601     TIP3     OH2      OT      -0.834000       15.9994           0
     28176 TIP3     3601     TIP3     H1       HT       0.417000       1.00800           0
     28177 TIP3     3601     TIP3     H2       HT       0.417000       1.00800           0
     28178 TIP3     3602     TIP3     OH2      OT      -0.834000       15.9994           0
     28179 TIP3     3602     TIP3     H1       HT       0.417000       1.00800           0
     28180 TIP3     3602     TIP3     H2       HT       0.417000       1.00800           0
     28181 TIP3     3603     TIP3     OH2      OT      -0.834000       15.9994           0
     28182 TIP3     3603     TIP3     H1       HT       0.417000       1.00800           0
     28183 TIP3     3603     TIP3     H2       HT       0.417000       1.00800           0
     28184 TIP3     3604     TIP3     OH2      OT      -0.834000       15.9994           0
     28185 TIP3     3604     TIP3     H1       HT       0.417000       1.00800           0
     28186 TIP3     3604     TIP3     H2       HT       0.417000       1.00800           0
     28187 TIP3     3605     TIP3     OH2      OT      -0.834000       15.9994           0
     28188 TIP3     3605     TIP3     H1       HT       0.417000       1.00800           0
     28189 TIP3     3605     TIP3     H2       HT       0.417000       1.00800           0
     28190 TIP3     3606     TIP3     OH2      OT      -0.834000       15.9994           0
     28191 TIP3     3606     TIP3     H1       HT       0.417000       1.00800           0
     28192 TIP3     3606     TIP3     H2       HT       0.417000       1.00800           0
     28193 TIP3     3607     TIP3     OH2      OT      -0.834000       15.9994           0
     28194 TIP3     3607     TIP3     H1       HT       0.417000       1.00800           0
     28195 TIP3     3607     TIP3     H2       HT       0.417000       1.00800           0
     28196 TIP3     3608     TIP3     OH2      OT      -0.834000       15.9994           0
     28197 TIP3     3608     TIP3     H1       HT       0.417000       1.00800           0
     28198 TIP3     3608     TIP3     H2       HT       0.417000       1.00800           0
     28199 TIP3     3609     TIP3     OH2      OT      -0.834000       15.9994           0
     28200 TIP3     3609     TIP3     H1       HT       0.417000       1.00800           0
     28201 TIP3     3609     TIP3     H2       HT       0.417000       1.00800           0
     28202 TIP3     3610     TIP3     OH2      OT      -0.834000       15.9994           0
     28203 TIP3     3610     TIP3     H1       HT       0.417000       1.00800           0
     28204 TIP3     3610     TIP3     H2       HT       0.417000       1.00800           0
     28205 TIP3     3611     TIP3     OH2      OT      -0.834000       15.9994           0
     28206 TIP3     3611     TIP3     H1       HT       0.417000       1.00800           0
     28207 TIP3     3611     TIP3     H2       HT       0.417000       1.00800           0
     28208 TIP3     3612     TIP3     OH2      OT      -0.834000       15.9994           0
     28209 TIP3     3612     TIP3     H1       HT       0.417000       1.00800           0
     28210 TIP3     3612     TIP3     H2       HT       0.417000       1.00800           0
     28211 TIP3     3613     TIP3     OH2      OT      -0.834000       15.9994           0
     28212 TIP3     3613     TIP3     H1       HT       0.417000       1.00800           0
     28213 TIP3     3613     TIP3     H2       HT       0.417000       1.00800           0
     28214 TIP3     3614     TIP3     OH2      OT      -0.834000       15.9994           0
     28215 TIP3     3614     TIP3     H1       HT       0.417000       1.00800           0
     28216 TIP3     3614     TIP3     H2       HT       0.417000       1.00800           0
     28217 TIP3     3615     TIP3     OH2      OT      -0.834000       15.9994           0
     28218 TIP3     3615     TIP3     H1       HT       0.417000       1.00800           0
     28219 TIP3     3615     TIP3     H2       HT       0.417000       1.00800           0
     28220 TIP3     3616     TIP3     OH2      OT      -0.834000       15.9994           0
     28221 TIP3     3616     TIP3     H1       HT       0.417000       1.00800           0
     28222 TIP3     3616     TIP3     H2       HT       0.417000       1.00800           0
     28223 TIP3     3617     TIP3     OH2      OT      -0.834000       15.9994           0
     28224 TIP3     3617     TIP3     H1       HT       0.417000       1.00800           0
     28225 TIP3     3617     TIP3     H2       HT       0.417000       1.00800           0
     28226 TIP3     3618     TIP3     OH2      OT      -0.834000       15.9994           0
     28227 TIP3     3618     TIP3     H1       HT       0.417000       1.00800           0
     28228 TIP3     3618     TIP3     H2       HT       0.417000       1.00800           0
     28229 TIP3     3619     TIP3     OH2      OT      -0.834000       15.9994           0
     28230 TIP3     3619     TIP3     H1       HT       0.417000       1.00800           0
     28231 TIP3     3619     TIP3     H2       HT       0.417000       1.00800           0
     28232 TIP3     3620     TIP3     OH2      OT      -0.834000       15.9994           0
     28233 TIP3     3620     TIP3     H1       HT       0.417000       1.00800           0
     28234 TIP3     3620     TIP3     H2       HT       0.417000       1.00800           0
     28235 TIP3     3621     TIP3     OH2      OT      -0.834000       15.9994           0
     28236 TIP3     3621     TIP3     H1       HT       0.417000       1.00800           0
     28237 TIP3     3621     TIP3     H2       HT       0.417000       1.00800           0
     28238 TIP3     3622     TIP3     OH2      OT      -0.834000       15.9994           0
     28239 TIP3     3622     TIP3     H1       HT       0.417000       1.00800           0
     28240 TIP3     3622     TIP3     H2       HT       0.417000       1.00800           0
     28241 TIP3     3623     TIP3     OH2      OT      -0.834000       15.9994           0
     28242 TIP3     3623     TIP3     H1       HT       0.417000       1.00800           0
     28243 TIP3     3623     TIP3     H2       HT       0.417000       1.00800           0
     28244 TIP3     3624     TIP3     OH2      OT      -0.834000       15.9994           0
     28245 TIP3     3624     TIP3     H1       HT       0.417000       1.00800           0
     28246 TIP3     3624     TIP3     H2       HT       0.417000       1.00800           0
     28247 TIP3     3625     TIP3     OH2      OT      -0.834000       15.9994           0
     28248 TIP3     3625     TIP3     H1       HT       0.417000       1.00800           0
     28249 TIP3     3625     TIP3     H2       HT       0.417000       1.00800           0
     28250 TIP3     3626     TIP3     OH2      OT      -0.834000       15.9994           0
     28251 TIP3     3626     TIP3     H1       HT       0.417000       1.00800           0
     28252 TIP3     3626     TIP3     H2       HT       0.417000       1.00800           0
     28253 TIP3     3627     TIP3     OH2      OT      -0.834000       15.9994           0
     28254 TIP3     3627     TIP3     H1       HT       0.417000       1.00800           0
     28255 TIP3     3627     TIP3     H2       HT       0.417000       1.00800           0
     28256 TIP3     3628     TIP3     OH2      OT      -0.834000       15.9994           0
     28257 TIP3     3628     TIP3     H1       HT       0.417000       1.00800           0
     28258 TIP3     3628     TIP3     H2       HT       0.417000       1.00800           0
     28259 TIP3     3629     TIP3     OH2      OT      -0.834000       15.9994           0
     28260 TIP3     3629     TIP3     H1       HT       0.417000       1.00800           0
     28261 TIP3     3629     TIP3     H2       HT       0.417000       1.00800           0
     28262 TIP3     3630     TIP3     OH2      OT      -0.834000       15.9994           0
     28263 TIP3     3630     TIP3     H1       HT       0.417000       1.00800           0
     28264 TIP3     3630     TIP3     H2       HT       0.417000       1.00800           0
     28265 TIP3     3631     TIP3     OH2      OT      -0.834000       15.9994           0
     28266 TIP3     3631     TIP3     H1       HT       0.417000       1.00800           0
     28267 TIP3     3631     TIP3     H2       HT       0.417000       1.00800           0
     28268 TIP3     3632     TIP3     OH2      OT      -0.834000       15.9994           0
     28269 TIP3     3632     TIP3     H1       HT       0.417000       1.00800           0
     28270 TIP3     3632     TIP3     H2       HT       0.417000       1.00800           0
     28271 TIP3     3633     TIP3     OH2      OT      -0.834000       15.9994           0
     28272 TIP3     3633     TIP3     H1       HT       0.417000       1.00800           0
     28273 TIP3     3633     TIP3     H2       HT       0.417000       1.00800           0
     28274 TIP3     3634     TIP3     OH2      OT      -0.834000       15.9994           0
     28275 TIP3     3634     TIP3     H1       HT       0.417000       1.00800           0
     28276 TIP3     3634     TIP3     H2       HT       0.417000       1.00800           0
     28277 TIP3     3635     TIP3     OH2      OT      -0.834000       15.9994           0
     28278 TIP3     3635     TIP3     H1       HT       0.417000       1.00800           0
     28279 TIP3     3635     TIP3     H2       HT       0.417000       1.00800           0
     28280 TIP3     3636     TIP3     OH2      OT      -0.834000       15.9994           0
     28281 TIP3     3636     TIP3     H1       HT       0.417000       1.00800           0
     28282 TIP3     3636     TIP3     H2       HT       0.417000       1.00800           0
     28283 TIP3     3637     TIP3     OH2      OT      -0.834000       15.9994           0
     28284 TIP3     3637     TIP3     H1       HT       0.417000       1.00800           0
     28285 TIP3     3637     TIP3     H2       HT       0.417000       1.00800           0
     28286 TIP3     3638     TIP3     OH2      OT      -0.834000       15.9994           0
     28287 TIP3     3638     TIP3     H1       HT       0.417000       1.00800           0
     28288 TIP3     3638     TIP3     H2       HT       0.417000       1.00800           0
     28289 TIP3     3639     TIP3     OH2      OT      -0.834000       15.9994           0
     28290 TIP3     3639     TIP3     H1       HT       0.417000       1.00800           0
     28291 TIP3     3639     TIP3     H2       HT       0.417000       1.00800           0
     28292 TIP3     3640     TIP3     OH2      OT      -0.834000       15.9994           0
     28293 TIP3     3640     TIP3     H1       HT       0.417000       1.00800           0
     28294 TIP3     3640     TIP3     H2       HT       0.417000       1.00800           0
     28295 TIP3     3641     TIP3     OH2      OT      -0.834000       15.9994           0
     28296 TIP3     3641     TIP3     H1       HT       0.417000       1.00800           0
     28297 TIP3     3641     TIP3     H2       HT       0.417000       1.00800           0
     28298 TIP3     3642     TIP3     OH2      OT      -0.834000       15.9994           0
     28299 TIP3     3642     TIP3     H1       HT       0.417000       1.00800           0
     28300 TIP3     3642     TIP3     H2       HT       0.417000       1.00800           0
     28301 TIP3     3643     TIP3     OH2      OT      -0.834000       15.9994           0
     28302 TIP3     3643     TIP3     H1       HT       0.417000       1.00800           0
     28303 TIP3     3643     TIP3     H2       HT       0.417000       1.00800           0
     28304 TIP3     3644     TIP3     OH2      OT      -0.834000       15.9994           0
     28305 TIP3     3644     TIP3     H1       HT       0.417000       1.00800           0
     28306 TIP3     3644     TIP3     H2       HT       0.417000       1.00800           0
     28307 TIP3     3645     TIP3     OH2      OT      -0.834000       15.9994           0
     28308 TIP3     3645     TIP3     H1       HT       0.417000       1.00800           0
     28309 TIP3     3645     TIP3     H2       HT       0.417000       1.00800           0
     28310 TIP3     3646     TIP3     OH2      OT      -0.834000       15.9994           0
     28311 TIP3     3646     TIP3     H1       HT       0.417000       1.00800           0
     28312 TIP3     3646     TIP3     H2       HT       0.417000       1.00800           0
     28313 TIP3     3647     TIP3     OH2      OT      -0.834000       15.9994           0
     28314 TIP3     3647     TIP3     H1       HT       0.417000       1.00800           0
     28315 TIP3     3647     TIP3     H2       HT       0.417000       1.00800           0
     28316 TIP3     3648     TIP3     OH2      OT      -0.834000       15.9994           0
     28317 TIP3     3648     TIP3     H1       HT       0.417000       1.00800           0
     28318 TIP3     3648     TIP3     H2       HT       0.417000       1.00800           0
     28319 TIP3     3649     TIP3     OH2      OT      -0.834000       15.9994           0
     28320 TIP3     3649     TIP3     H1       HT       0.417000       1.00800           0
     28321 TIP3     3649     TIP3     H2       HT       0.417000       1.00800           0
     28322 TIP3     3650     TIP3     OH2      OT      -0.834000       15.9994           0
     28323 TIP3     3650     TIP3     H1       HT       0.417000       1.00800           0
     28324 TIP3     3650     TIP3     H2       HT       0.417000       1.00800           0
     28325 TIP3     3651     TIP3     OH2      OT      -0.834000       15.9994           0
     28326 TIP3     3651     TIP3     H1       HT       0.417000       1.00800           0
     28327 TIP3     3651     TIP3     H2       HT       0.417000       1.00800           0
     28328 TIP3     3652     TIP3     OH2      OT      -0.834000       15.9994           0
     28329 TIP3     3652     TIP3     H1       HT       0.417000       1.00800           0
     28330 TIP3     3652     TIP3     H2       HT       0.417000       1.00800           0
     28331 TIP3     3653     TIP3     OH2      OT      -0.834000       15.9994           0
     28332 TIP3     3653     TIP3     H1       HT       0.417000       1.00800           0
     28333 TIP3     3653     TIP3     H2       HT       0.417000       1.00800           0
     28334 TIP3     3654     TIP3     OH2      OT      -0.834000       15.9994           0
     28335 TIP3     3654     TIP3     H1       HT       0.417000       1.00800           0
     28336 TIP3     3654     TIP3     H2       HT       0.417000       1.00800           0
     28337 TIP3     3655     TIP3     OH2      OT      -0.834000       15.9994           0
     28338 TIP3     3655     TIP3     H1       HT       0.417000       1.00800           0
     28339 TIP3     3655     TIP3     H2       HT       0.417000       1.00800           0
     28340 TIP3     3656     TIP3     OH2      OT      -0.834000       15.9994           0
     28341 TIP3     3656     TIP3     H1       HT       0.417000       1.00800           0
     28342 TIP3     3656     TIP3     H2       HT       0.417000       1.00800           0
     28343 TIP3     3657     TIP3     OH2      OT      -0.834000       15.9994           0
     28344 TIP3     3657     TIP3     H1       HT       0.417000       1.00800           0
     28345 TIP3     3657     TIP3     H2       HT       0.417000       1.00800           0
     28346 TIP3     3658     TIP3     OH2      OT      -0.834000       15.9994           0
     28347 TIP3     3658     TIP3     H1       HT       0.417000       1.00800           0
     28348 TIP3     3658     TIP3     H2       HT       0.417000       1.00800           0
     28349 TIP3     3659     TIP3     OH2      OT      -0.834000       15.9994           0
     28350 TIP3     3659     TIP3     H1       HT       0.417000       1.00800           0
     28351 TIP3     3659     TIP3     H2       HT       0.417000       1.00800           0
     28352 TIP3     3660     TIP3     OH2      OT      -0.834000       15.9994           0
     28353 TIP3     3660     TIP3     H1       HT       0.417000       1.00800           0
     28354 TIP3     3660     TIP3     H2       HT       0.417000       1.00800           0
     28355 TIP3     3661     TIP3     OH2      OT      -0.834000       15.9994           0
     28356 TIP3     3661     TIP3     H1       HT       0.417000       1.00800           0
     28357 TIP3     3661     TIP3     H2       HT       0.417000       1.00800           0
     28358 TIP3     3662     TIP3     OH2      OT      -0.834000       15.9994           0
     28359 TIP3     3662     TIP3     H1       HT       0.417000       1.00800           0
     28360 TIP3     3662     TIP3     H2       HT       0.417000       1.00800           0
     28361 TIP3     3663     TIP3     OH2      OT      -0.834000       15.9994           0
     28362 TIP3     3663     TIP3     H1       HT       0.417000       1.00800           0
     28363 TIP3     3663     TIP3     H2       HT       0.417000       1.00800           0
     28364 TIP3     3664     TIP3     OH2      OT      -0.834000       15.9994           0
     28365 TIP3     3664     TIP3     H1       HT       0.417000       1.00800           0
     28366 TIP3     3664     TIP3     H2       HT       0.417000       1.00800           0
     28367 TIP3     3665     TIP3     OH2      OT      -0.834000       15.9994           0
     28368 TIP3     3665     TIP3     H1       HT       0.417000       1.00800           0
     28369 TIP3     3665     TIP3     H2       HT       0.417000       1.00800           0
     28370 TIP3     3666     TIP3     OH2      OT      -0.834000       15.9994           0
     28371 TIP3     3666     TIP3     H1       HT       0.417000       1.00800           0
     28372 TIP3     3666     TIP3     H2       HT       0.417000       1.00800           0
     28373 TIP3     3667     TIP3     OH2      OT      -0.834000       15.9994           0
     28374 TIP3     3667     TIP3     H1       HT       0.417000       1.00800           0
     28375 TIP3     3667     TIP3     H2       HT       0.417000       1.00800           0
     28376 TIP3     3668     TIP3     OH2      OT      -0.834000       15.9994           0
     28377 TIP3     3668     TIP3     H1       HT       0.417000       1.00800           0
     28378 TIP3     3668     TIP3     H2       HT       0.417000       1.00800           0
     28379 TIP3     3669     TIP3     OH2      OT      -0.834000       15.9994           0
     28380 TIP3     3669     TIP3     H1       HT       0.417000       1.00800           0
     28381 TIP3     3669     TIP3     H2       HT       0.417000       1.00800           0
     28382 TIP3     3670     TIP3     OH2      OT      -0.834000       15.9994           0
     28383 TIP3     3670     TIP3     H1       HT       0.417000       1.00800           0
     28384 TIP3     3670     TIP3     H2       HT       0.417000       1.00800           0
     28385 TIP3     3671     TIP3     OH2      OT      -0.834000       15.9994           0
     28386 TIP3     3671     TIP3     H1       HT       0.417000       1.00800           0
     28387 TIP3     3671     TIP3     H2       HT       0.417000       1.00800           0
     28388 TIP3     3672     TIP3     OH2      OT      -0.834000       15.9994           0
     28389 TIP3     3672     TIP3     H1       HT       0.417000       1.00800           0
     28390 TIP3     3672     TIP3     H2       HT       0.417000       1.00800           0
     28391 TIP3     3673     TIP3     OH2      OT      -0.834000       15.9994           0
     28392 TIP3     3673     TIP3     H1       HT       0.417000       1.00800           0
     28393 TIP3     3673     TIP3     H2       HT       0.417000       1.00800           0
     28394 TIP3     3674     TIP3     OH2      OT      -0.834000       15.9994           0
     28395 TIP3     3674     TIP3     H1       HT       0.417000       1.00800           0
     28396 TIP3     3674     TIP3     H2       HT       0.417000       1.00800           0
     28397 TIP3     3675     TIP3     OH2      OT      -0.834000       15.9994           0
     28398 TIP3     3675     TIP3     H1       HT       0.417000       1.00800           0
     28399 TIP3     3675     TIP3     H2       HT       0.417000       1.00800           0
     28400 TIP3     3676     TIP3     OH2      OT      -0.834000       15.9994           0
     28401 TIP3     3676     TIP3     H1       HT       0.417000       1.00800           0
     28402 TIP3     3676     TIP3     H2       HT       0.417000       1.00800           0
     28403 TIP3     3677     TIP3     OH2      OT      -0.834000       15.9994           0
     28404 TIP3     3677     TIP3     H1       HT       0.417000       1.00800           0
     28405 TIP3     3677     TIP3     H2       HT       0.417000       1.00800           0
     28406 TIP3     3678     TIP3     OH2      OT      -0.834000       15.9994           0
     28407 TIP3     3678     TIP3     H1       HT       0.417000       1.00800           0
     28408 TIP3     3678     TIP3     H2       HT       0.417000       1.00800           0
     28409 TIP3     3679     TIP3     OH2      OT      -0.834000       15.9994           0
     28410 TIP3     3679     TIP3     H1       HT       0.417000       1.00800           0
     28411 TIP3     3679     TIP3     H2       HT       0.417000       1.00800           0
     28412 TIP3     3680     TIP3     OH2      OT      -0.834000       15.9994           0
     28413 TIP3     3680     TIP3     H1       HT       0.417000       1.00800           0
     28414 TIP3     3680     TIP3     H2       HT       0.417000       1.00800           0
     28415 TIP3     3681     TIP3     OH2      OT      -0.834000       15.9994           0
     28416 TIP3     3681     TIP3     H1       HT       0.417000       1.00800           0
     28417 TIP3     3681     TIP3     H2       HT       0.417000       1.00800           0
     28418 TIP3     3682     TIP3     OH2      OT      -0.834000       15.9994           0
     28419 TIP3     3682     TIP3     H1       HT       0.417000       1.00800           0
     28420 TIP3     3682     TIP3     H2       HT       0.417000       1.00800           0
     28421 TIP3     3683     TIP3     OH2      OT      -0.834000       15.9994           0
     28422 TIP3     3683     TIP3     H1       HT       0.417000       1.00800           0
     28423 TIP3     3683     TIP3     H2       HT       0.417000       1.00800           0
     28424 TIP3     3684     TIP3     OH2      OT      -0.834000       15.9994           0
     28425 TIP3     3684     TIP3     H1       HT       0.417000       1.00800           0
     28426 TIP3     3684     TIP3     H2       HT       0.417000       1.00800           0
     28427 TIP3     3685     TIP3     OH2      OT      -0.834000       15.9994           0
     28428 TIP3     3685     TIP3     H1       HT       0.417000       1.00800           0
     28429 TIP3     3685     TIP3     H2       HT       0.417000       1.00800           0
     28430 TIP3     3686     TIP3     OH2      OT      -0.834000       15.9994           0
     28431 TIP3     3686     TIP3     H1       HT       0.417000       1.00800           0
     28432 TIP3     3686     TIP3     H2       HT       0.417000       1.00800           0
     28433 TIP3     3687     TIP3     OH2      OT      -0.834000       15.9994           0
     28434 TIP3     3687     TIP3     H1       HT       0.417000       1.00800           0
     28435 TIP3     3687     TIP3     H2       HT       0.417000       1.00800           0
     28436 TIP3     3688     TIP3     OH2      OT      -0.834000       15.9994           0
     28437 TIP3     3688     TIP3     H1       HT       0.417000       1.00800           0
     28438 TIP3     3688     TIP3     H2       HT       0.417000       1.00800           0
     28439 TIP3     3689     TIP3     OH2      OT      -0.834000       15.9994           0
     28440 TIP3     3689     TIP3     H1       HT       0.417000       1.00800           0
     28441 TIP3     3689     TIP3     H2       HT       0.417000       1.00800           0
     28442 TIP3     3690     TIP3     OH2      OT      -0.834000       15.9994           0
     28443 TIP3     3690     TIP3     H1       HT       0.417000       1.00800           0
     28444 TIP3     3690     TIP3     H2       HT       0.417000       1.00800           0
     28445 TIP3     3691     TIP3     OH2      OT      -0.834000       15.9994           0
     28446 TIP3     3691     TIP3     H1       HT       0.417000       1.00800           0
     28447 TIP3     3691     TIP3     H2       HT       0.417000       1.00800           0
     28448 TIP3     3692     TIP3     OH2      OT      -0.834000       15.9994           0
     28449 TIP3     3692     TIP3     H1       HT       0.417000       1.00800           0
     28450 TIP3     3692     TIP3     H2       HT       0.417000       1.00800           0
     28451 TIP3     3693     TIP3     OH2      OT      -0.834000       15.9994           0
     28452 TIP3     3693     TIP3     H1       HT       0.417000       1.00800           0
     28453 TIP3     3693     TIP3     H2       HT       0.417000       1.00800           0
     28454 TIP3     3694     TIP3     OH2      OT      -0.834000       15.9994           0
     28455 TIP3     3694     TIP3     H1       HT       0.417000       1.00800           0
     28456 TIP3     3694     TIP3     H2       HT       0.417000       1.00800           0
     28457 TIP3     3695     TIP3     OH2      OT      -0.834000       15.9994           0
     28458 TIP3     3695     TIP3     H1       HT       0.417000       1.00800           0
     28459 TIP3     3695     TIP3     H2       HT       0.417000       1.00800           0
     28460 TIP3     3696     TIP3     OH2      OT      -0.834000       15.9994           0
     28461 TIP3     3696     TIP3     H1       HT       0.417000       1.00800           0
     28462 TIP3     3696     TIP3     H2       HT       0.417000       1.00800           0
     28463 TIP3     3697     TIP3     OH2      OT      -0.834000       15.9994           0
     28464 TIP3     3697     TIP3     H1       HT       0.417000       1.00800           0
     28465 TIP3     3697     TIP3     H2       HT       0.417000       1.00800           0
     28466 TIP3     3698     TIP3     OH2      OT      -0.834000       15.9994           0
     28467 TIP3     3698     TIP3     H1       HT       0.417000       1.00800           0
     28468 TIP3     3698     TIP3     H2       HT       0.417000       1.00800           0
     28469 TIP3     3699     TIP3     OH2      OT      -0.834000       15.9994           0
     28470 TIP3     3699     TIP3     H1       HT       0.417000       1.00800           0
     28471 TIP3     3699     TIP3     H2       HT       0.417000       1.00800           0
     28472 TIP3     3700     TIP3     OH2      OT      -0.834000       15.9994           0
     28473 TIP3     3700     TIP3     H1       HT       0.417000       1.00800           0
     28474 TIP3     3700     TIP3     H2       HT       0.417000       1.00800           0
     28475 TIP3     3701     TIP3     OH2      OT      -0.834000       15.9994           0
     28476 TIP3     3701     TIP3     H1       HT       0.417000       1.00800           0
     28477 TIP3     3701     TIP3     H2       HT       0.417000       1.00800           0
     28478 TIP3     3702     TIP3     OH2      OT      -0.834000       15.9994           0
     28479 TIP3     3702     TIP3     H1       HT       0.417000       1.00800           0
     28480 TIP3     3702     TIP3     H2       HT       0.417000       1.00800           0
     28481 TIP3     3703     TIP3     OH2      OT      -0.834000       15.9994           0
     28482 TIP3     3703     TIP3     H1       HT       0.417000       1.00800           0
     28483 TIP3     3703     TIP3     H2       HT       0.417000       1.00800           0
     28484 TIP3     3704     TIP3     OH2      OT      -0.834000       15.9994           0
     28485 TIP3     3704     TIP3     H1       HT       0.417000       1.00800           0
     28486 TIP3     3704     TIP3     H2       HT       0.417000       1.00800           0
     28487 TIP3     3705     TIP3     OH2      OT      -0.834000       15.9994           0
     28488 TIP3     3705     TIP3     H1       HT       0.417000       1.00800           0
     28489 TIP3     3705     TIP3     H2       HT       0.417000       1.00800           0
     28490 TIP3     3706     TIP3     OH2      OT      -0.834000       15.9994           0
     28491 TIP3     3706     TIP3     H1       HT       0.417000       1.00800           0
     28492 TIP3     3706     TIP3     H2       HT       0.417000       1.00800           0
     28493 TIP3     3707     TIP3     OH2      OT      -0.834000       15.9994           0
     28494 TIP3     3707     TIP3     H1       HT       0.417000       1.00800           0
     28495 TIP3     3707     TIP3     H2       HT       0.417000       1.00800           0
     28496 TIP3     3708     TIP3     OH2      OT      -0.834000       15.9994           0
     28497 TIP3     3708     TIP3     H1       HT       0.417000       1.00800           0
     28498 TIP3     3708     TIP3     H2       HT       0.417000       1.00800           0
     28499 TIP3     3709     TIP3     OH2      OT      -0.834000       15.9994           0
     28500 TIP3     3709     TIP3     H1       HT       0.417000       1.00800           0
     28501 TIP3     3709     TIP3     H2       HT       0.417000       1.00800           0
     28502 TIP3     3710     TIP3     OH2      OT      -0.834000       15.9994           0
     28503 TIP3     3710     TIP3     H1       HT       0.417000       1.00800           0
     28504 TIP3     3710     TIP3     H2       HT       0.417000       1.00800           0
     28505 TIP3     3711     TIP3     OH2      OT      -0.834000       15.9994           0
     28506 TIP3     3711     TIP3     H1       HT       0.417000       1.00800           0
     28507 TIP3     3711     TIP3     H2       HT       0.417000       1.00800           0
     28508 TIP3     3712     TIP3     OH2      OT      -0.834000       15.9994           0
     28509 TIP3     3712     TIP3     H1       HT       0.417000       1.00800           0
     28510 TIP3     3712     TIP3     H2       HT       0.417000       1.00800           0
     28511 TIP3     3713     TIP3     OH2      OT      -0.834000       15.9994           0
     28512 TIP3     3713     TIP3     H1       HT       0.417000       1.00800           0
     28513 TIP3     3713     TIP3     H2       HT       0.417000       1.00800           0
     28514 TIP3     3714     TIP3     OH2      OT      -0.834000       15.9994           0
     28515 TIP3     3714     TIP3     H1       HT       0.417000       1.00800           0
     28516 TIP3     3714     TIP3     H2       HT       0.417000       1.00800           0
     28517 TIP3     3715     TIP3     OH2      OT      -0.834000       15.9994           0
     28518 TIP3     3715     TIP3     H1       HT       0.417000       1.00800           0
     28519 TIP3     3715     TIP3     H2       HT       0.417000       1.00800           0
     28520 TIP3     3716     TIP3     OH2      OT      -0.834000       15.9994           0
     28521 TIP3     3716     TIP3     H1       HT       0.417000       1.00800           0
     28522 TIP3     3716     TIP3     H2       HT       0.417000       1.00800           0
     28523 TIP3     3717     TIP3     OH2      OT      -0.834000       15.9994           0
     28524 TIP3     3717     TIP3     H1       HT       0.417000       1.00800           0
     28525 TIP3     3717     TIP3     H2       HT       0.417000       1.00800           0
     28526 TIP3     3718     TIP3     OH2      OT      -0.834000       15.9994           0
     28527 TIP3     3718     TIP3     H1       HT       0.417000       1.00800           0
     28528 TIP3     3718     TIP3     H2       HT       0.417000       1.00800           0
     28529 TIP3     3719     TIP3     OH2      OT      -0.834000       15.9994           0
     28530 TIP3     3719     TIP3     H1       HT       0.417000       1.00800           0
     28531 TIP3     3719     TIP3     H2       HT       0.417000       1.00800           0
     28532 TIP3     3720     TIP3     OH2      OT      -0.834000       15.9994           0
     28533 TIP3     3720     TIP3     H1       HT       0.417000       1.00800           0
     28534 TIP3     3720     TIP3     H2       HT       0.417000       1.00800           0
     28535 TIP3     3721     TIP3     OH2      OT      -0.834000       15.9994           0
     28536 TIP3     3721     TIP3     H1       HT       0.417000       1.00800           0
     28537 TIP3     3721     TIP3     H2       HT       0.417000       1.00800           0
     28538 TIP3     3722     TIP3     OH2      OT      -0.834000       15.9994           0
     28539 TIP3     3722     TIP3     H1       HT       0.417000       1.00800           0
     28540 TIP3     3722     TIP3     H2       HT       0.417000       1.00800           0
     28541 TIP3     3723     TIP3     OH2      OT      -0.834000       15.9994           0
     28542 TIP3     3723     TIP3     H1       HT       0.417000       1.00800           0
     28543 TIP3     3723     TIP3     H2       HT       0.417000       1.00800           0
     28544 TIP3     3724     TIP3     OH2      OT      -0.834000       15.9994           0
     28545 TIP3     3724     TIP3     H1       HT       0.417000       1.00800           0
     28546 TIP3     3724     TIP3     H2       HT       0.417000       1.00800           0
     28547 TIP3     3725     TIP3     OH2      OT      -0.834000       15.9994           0
     28548 TIP3     3725     TIP3     H1       HT       0.417000       1.00800           0
     28549 TIP3     3725     TIP3     H2       HT       0.417000       1.00800           0
     28550 TIP3     3726     TIP3     OH2      OT      -0.834000       15.9994           0
     28551 TIP3     3726     TIP3     H1       HT       0.417000       1.00800           0
     28552 TIP3     3726     TIP3     H2       HT       0.417000       1.00800           0
     28553 TIP3     3727     TIP3     OH2      OT      -0.834000       15.9994           0
     28554 TIP3     3727     TIP3     H1       HT       0.417000       1.00800           0
     28555 TIP3     3727     TIP3     H2       HT       0.417000       1.00800           0
     28556 TIP3     3728     TIP3     OH2      OT      -0.834000       15.9994           0
     28557 TIP3     3728     TIP3     H1       HT       0.417000       1.00800           0
     28558 TIP3     3728     TIP3     H2       HT       0.417000       1.00800           0
     28559 TIP3     3729     TIP3     OH2      OT      -0.834000       15.9994           0
     28560 TIP3     3729     TIP3     H1       HT       0.417000       1.00800           0
     28561 TIP3     3729     TIP3     H2       HT       0.417000       1.00800           0
     28562 TIP3     3730     TIP3     OH2      OT      -0.834000       15.9994           0
     28563 TIP3     3730     TIP3     H1       HT       0.417000       1.00800           0
     28564 TIP3     3730     TIP3     H2       HT       0.417000       1.00800           0
     28565 TIP3     3731     TIP3     OH2      OT      -0.834000       15.9994           0
     28566 TIP3     3731     TIP3     H1       HT       0.417000       1.00800           0
     28567 TIP3     3731     TIP3     H2       HT       0.417000       1.00800           0
     28568 TIP3     3732     TIP3     OH2      OT      -0.834000       15.9994           0
     28569 TIP3     3732     TIP3     H1       HT       0.417000       1.00800           0
     28570 TIP3     3732     TIP3     H2       HT       0.417000       1.00800           0
     28571 TIP3     3733     TIP3     OH2      OT      -0.834000       15.9994           0
     28572 TIP3     3733     TIP3     H1       HT       0.417000       1.00800           0
     28573 TIP3     3733     TIP3     H2       HT       0.417000       1.00800           0
     28574 TIP3     3734     TIP3     OH2      OT      -0.834000       15.9994           0
     28575 TIP3     3734     TIP3     H1       HT       0.417000       1.00800           0
     28576 TIP3     3734     TIP3     H2       HT       0.417000       1.00800           0
     28577 TIP3     3735     TIP3     OH2      OT      -0.834000       15.9994           0
     28578 TIP3     3735     TIP3     H1       HT       0.417000       1.00800           0
     28579 TIP3     3735     TIP3     H2       HT       0.417000       1.00800           0
     28580 TIP3     3736     TIP3     OH2      OT      -0.834000       15.9994           0
     28581 TIP3     3736     TIP3     H1       HT       0.417000       1.00800           0
     28582 TIP3     3736     TIP3     H2       HT       0.417000       1.00800           0
     28583 TIP3     3737     TIP3     OH2      OT      -0.834000       15.9994           0
     28584 TIP3     3737     TIP3     H1       HT       0.417000       1.00800           0
     28585 TIP3     3737     TIP3     H2       HT       0.417000       1.00800           0
     28586 TIP3     3738     TIP3     OH2      OT      -0.834000       15.9994           0
     28587 TIP3     3738     TIP3     H1       HT       0.417000       1.00800           0
     28588 TIP3     3738     TIP3     H2       HT       0.417000       1.00800           0
     28589 TIP3     3739     TIP3     OH2      OT      -0.834000       15.9994           0
     28590 TIP3     3739     TIP3     H1       HT       0.417000       1.00800           0
     28591 TIP3     3739     TIP3     H2       HT       0.417000       1.00800           0
     28592 TIP3     3740     TIP3     OH2      OT      -0.834000       15.9994           0
     28593 TIP3     3740     TIP3     H1       HT       0.417000       1.00800           0
     28594 TIP3     3740     TIP3     H2       HT       0.417000       1.00800           0
     28595 TIP3     3741     TIP3     OH2      OT      -0.834000       15.9994           0
     28596 TIP3     3741     TIP3     H1       HT       0.417000       1.00800           0
     28597 TIP3     3741     TIP3     H2       HT       0.417000       1.00800           0
     28598 TIP3     3742     TIP3     OH2      OT      -0.834000       15.9994           0
     28599 TIP3     3742     TIP3     H1       HT       0.417000       1.00800           0
     28600 TIP3     3742     TIP3     H2       HT       0.417000       1.00800           0
     28601 TIP3     3743     TIP3     OH2      OT      -0.834000       15.9994           0
     28602 TIP3     3743     TIP3     H1       HT       0.417000       1.00800           0
     28603 TIP3     3743     TIP3     H2       HT       0.417000       1.00800           0
     28604 TIP3     3744     TIP3     OH2      OT      -0.834000       15.9994           0
     28605 TIP3     3744     TIP3     H1       HT       0.417000       1.00800           0
     28606 TIP3     3744     TIP3     H2       HT       0.417000       1.00800           0
     28607 TIP3     3745     TIP3     OH2      OT      -0.834000       15.9994           0
     28608 TIP3     3745     TIP3     H1       HT       0.417000       1.00800           0
     28609 TIP3     3745     TIP3     H2       HT       0.417000       1.00800           0
     28610 TIP3     3746     TIP3     OH2      OT      -0.834000       15.9994           0
     28611 TIP3     3746     TIP3     H1       HT       0.417000       1.00800           0
     28612 TIP3     3746     TIP3     H2       HT       0.417000       1.00800           0
     28613 TIP3     3747     TIP3     OH2      OT      -0.834000       15.9994           0
     28614 TIP3     3747     TIP3     H1       HT       0.417000       1.00800           0
     28615 TIP3     3747     TIP3     H2       HT       0.417000       1.00800           0
     28616 TIP3     3748     TIP3     OH2      OT      -0.834000       15.9994           0
     28617 TIP3     3748     TIP3     H1       HT       0.417000       1.00800           0
     28618 TIP3     3748     TIP3     H2       HT       0.417000       1.00800           0
     28619 TIP3     3749     TIP3     OH2      OT      -0.834000       15.9994           0
     28620 TIP3     3749     TIP3     H1       HT       0.417000       1.00800           0
     28621 TIP3     3749     TIP3     H2       HT       0.417000       1.00800           0
     28622 TIP3     3750     TIP3     OH2      OT      -0.834000       15.9994           0
     28623 TIP3     3750     TIP3     H1       HT       0.417000       1.00800           0
     28624 TIP3     3750     TIP3     H2       HT       0.417000       1.00800           0
     28625 TIP3     3751     TIP3     OH2      OT      -0.834000       15.9994           0
     28626 TIP3     3751     TIP3     H1       HT       0.417000       1.00800           0
     28627 TIP3     3751     TIP3     H2       HT       0.417000       1.00800           0
     28628 TIP3     3752     TIP3     OH2      OT      -0.834000       15.9994           0
     28629 TIP3     3752     TIP3     H1       HT       0.417000       1.00800           0
     28630 TIP3     3752     TIP3     H2       HT       0.417000       1.00800           0
     28631 TIP3     3753     TIP3     OH2      OT      -0.834000       15.9994           0
     28632 TIP3     3753     TIP3     H1       HT       0.417000       1.00800           0
     28633 TIP3     3753     TIP3     H2       HT       0.417000       1.00800           0
     28634 TIP3     3754     TIP3     OH2      OT      -0.834000       15.9994           0
     28635 TIP3     3754     TIP3     H1       HT       0.417000       1.00800           0
     28636 TIP3     3754     TIP3     H2       HT       0.417000       1.00800           0
     28637 TIP3     3755     TIP3     OH2      OT      -0.834000       15.9994           0
     28638 TIP3     3755     TIP3     H1       HT       0.417000       1.00800           0
     28639 TIP3     3755     TIP3     H2       HT       0.417000       1.00800           0
     28640 TIP3     3756     TIP3     OH2      OT      -0.834000       15.9994           0
     28641 TIP3     3756     TIP3     H1       HT       0.417000       1.00800           0
     28642 TIP3     3756     TIP3     H2       HT       0.417000       1.00800           0
     28643 TIP3     3757     TIP3     OH2      OT      -0.834000       15.9994           0
     28644 TIP3     3757     TIP3     H1       HT       0.417000       1.00800           0
     28645 TIP3     3757     TIP3     H2       HT       0.417000       1.00800           0
     28646 TIP3     3758     TIP3     OH2      OT      -0.834000       15.9994           0
     28647 TIP3     3758     TIP3     H1       HT       0.417000       1.00800           0
     28648 TIP3     3758     TIP3     H2       HT       0.417000       1.00800           0
     28649 TIP3     3759     TIP3     OH2      OT      -0.834000       15.9994           0
     28650 TIP3     3759     TIP3     H1       HT       0.417000       1.00800           0
     28651 TIP3     3759     TIP3     H2       HT       0.417000       1.00800           0
     28652 TIP3     3760     TIP3     OH2      OT      -0.834000       15.9994           0
     28653 TIP3     3760     TIP3     H1       HT       0.417000       1.00800           0
     28654 TIP3     3760     TIP3     H2       HT       0.417000       1.00800           0
     28655 TIP3     3761     TIP3     OH2      OT      -0.834000       15.9994           0
     28656 TIP3     3761     TIP3     H1       HT       0.417000       1.00800           0
     28657 TIP3     3761     TIP3     H2       HT       0.417000       1.00800           0
     28658 TIP3     3762     TIP3     OH2      OT      -0.834000       15.9994           0
     28659 TIP3     3762     TIP3     H1       HT       0.417000       1.00800           0
     28660 TIP3     3762     TIP3     H2       HT       0.417000       1.00800           0
     28661 TIP3     3763     TIP3     OH2      OT      -0.834000       15.9994           0
     28662 TIP3     3763     TIP3     H1       HT       0.417000       1.00800           0
     28663 TIP3     3763     TIP3     H2       HT       0.417000       1.00800           0
     28664 TIP3     3764     TIP3     OH2      OT      -0.834000       15.9994           0
     28665 TIP3     3764     TIP3     H1       HT       0.417000       1.00800           0
     28666 TIP3     3764     TIP3     H2       HT       0.417000       1.00800           0
     28667 TIP3     3765     TIP3     OH2      OT      -0.834000       15.9994           0
     28668 TIP3     3765     TIP3     H1       HT       0.417000       1.00800           0
     28669 TIP3     3765     TIP3     H2       HT       0.417000       1.00800           0
     28670 TIP3     3766     TIP3     OH2      OT      -0.834000       15.9994           0
     28671 TIP3     3766     TIP3     H1       HT       0.417000       1.00800           0
     28672 TIP3     3766     TIP3     H2       HT       0.417000       1.00800           0
     28673 TIP3     3767     TIP3     OH2      OT      -0.834000       15.9994           0
     28674 TIP3     3767     TIP3     H1       HT       0.417000       1.00800           0
     28675 TIP3     3767     TIP3     H2       HT       0.417000       1.00800           0
     28676 TIP3     3768     TIP3     OH2      OT      -0.834000       15.9994           0
     28677 TIP3     3768     TIP3     H1       HT       0.417000       1.00800           0
     28678 TIP3     3768     TIP3     H2       HT       0.417000       1.00800           0
     28679 TIP3     3769     TIP3     OH2      OT      -0.834000       15.9994           0
     28680 TIP3     3769     TIP3     H1       HT       0.417000       1.00800           0
     28681 TIP3     3769     TIP3     H2       HT       0.417000       1.00800           0
     28682 TIP3     3770     TIP3     OH2      OT      -0.834000       15.9994           0
     28683 TIP3     3770     TIP3     H1       HT       0.417000       1.00800           0
     28684 TIP3     3770     TIP3     H2       HT       0.417000       1.00800           0
     28685 TIP3     3771     TIP3     OH2      OT      -0.834000       15.9994           0
     28686 TIP3     3771     TIP3     H1       HT       0.417000       1.00800           0
     28687 TIP3     3771     TIP3     H2       HT       0.417000       1.00800           0
     28688 TIP3     3772     TIP3     OH2      OT      -0.834000       15.9994           0
     28689 TIP3     3772     TIP3     H1       HT       0.417000       1.00800           0
     28690 TIP3     3772     TIP3     H2       HT       0.417000       1.00800           0
     28691 TIP3     3773     TIP3     OH2      OT      -0.834000       15.9994           0
     28692 TIP3     3773     TIP3     H1       HT       0.417000       1.00800           0
     28693 TIP3     3773     TIP3     H2       HT       0.417000       1.00800           0
     28694 TIP3     3774     TIP3     OH2      OT      -0.834000       15.9994           0
     28695 TIP3     3774     TIP3     H1       HT       0.417000       1.00800           0
     28696 TIP3     3774     TIP3     H2       HT       0.417000       1.00800           0
     28697 TIP3     3775     TIP3     OH2      OT      -0.834000       15.9994           0
     28698 TIP3     3775     TIP3     H1       HT       0.417000       1.00800           0
     28699 TIP3     3775     TIP3     H2       HT       0.417000       1.00800           0
     28700 TIP3     3776     TIP3     OH2      OT      -0.834000       15.9994           0
     28701 TIP3     3776     TIP3     H1       HT       0.417000       1.00800           0
     28702 TIP3     3776     TIP3     H2       HT       0.417000       1.00800           0
     28703 TIP3     3777     TIP3     OH2      OT      -0.834000       15.9994           0
     28704 TIP3     3777     TIP3     H1       HT       0.417000       1.00800           0
     28705 TIP3     3777     TIP3     H2       HT       0.417000       1.00800           0
     28706 TIP3     3778     TIP3     OH2      OT      -0.834000       15.9994           0
     28707 TIP3     3778     TIP3     H1       HT       0.417000       1.00800           0
     28708 TIP3     3778     TIP3     H2       HT       0.417000       1.00800           0
     28709 TIP3     3779     TIP3     OH2      OT      -0.834000       15.9994           0
     28710 TIP3     3779     TIP3     H1       HT       0.417000       1.00800           0
     28711 TIP3     3779     TIP3     H2       HT       0.417000       1.00800           0
     28712 TIP3     3780     TIP3     OH2      OT      -0.834000       15.9994           0
     28713 TIP3     3780     TIP3     H1       HT       0.417000       1.00800           0
     28714 TIP3     3780     TIP3     H2       HT       0.417000       1.00800           0
     28715 TIP3     3781     TIP3     OH2      OT      -0.834000       15.9994           0
     28716 TIP3     3781     TIP3     H1       HT       0.417000       1.00800           0
     28717 TIP3     3781     TIP3     H2       HT       0.417000       1.00800           0
     28718 TIP3     3782     TIP3     OH2      OT      -0.834000       15.9994           0
     28719 TIP3     3782     TIP3     H1       HT       0.417000       1.00800           0
     28720 TIP3     3782     TIP3     H2       HT       0.417000       1.00800           0
     28721 TIP3     3783     TIP3     OH2      OT      -0.834000       15.9994           0
     28722 TIP3     3783     TIP3     H1       HT       0.417000       1.00800           0
     28723 TIP3     3783     TIP3     H2       HT       0.417000       1.00800           0
     28724 TIP3     3784     TIP3     OH2      OT      -0.834000       15.9994           0
     28725 TIP3     3784     TIP3     H1       HT       0.417000       1.00800           0
     28726 TIP3     3784     TIP3     H2       HT       0.417000       1.00800           0
     28727 TIP3     3785     TIP3     OH2      OT      -0.834000       15.9994           0
     28728 TIP3     3785     TIP3     H1       HT       0.417000       1.00800           0
     28729 TIP3     3785     TIP3     H2       HT       0.417000       1.00800           0
     28730 TIP3     3786     TIP3     OH2      OT      -0.834000       15.9994           0
     28731 TIP3     3786     TIP3     H1       HT       0.417000       1.00800           0
     28732 TIP3     3786     TIP3     H2       HT       0.417000       1.00800           0
     28733 TIP3     3787     TIP3     OH2      OT      -0.834000       15.9994           0
     28734 TIP3     3787     TIP3     H1       HT       0.417000       1.00800           0
     28735 TIP3     3787     TIP3     H2       HT       0.417000       1.00800           0
     28736 TIP3     3788     TIP3     OH2      OT      -0.834000       15.9994           0
     28737 TIP3     3788     TIP3     H1       HT       0.417000       1.00800           0
     28738 TIP3     3788     TIP3     H2       HT       0.417000       1.00800           0
     28739 TIP3     3789     TIP3     OH2      OT      -0.834000       15.9994           0
     28740 TIP3     3789     TIP3     H1       HT       0.417000       1.00800           0
     28741 TIP3     3789     TIP3     H2       HT       0.417000       1.00800           0
     28742 TIP3     3790     TIP3     OH2      OT      -0.834000       15.9994           0
     28743 TIP3     3790     TIP3     H1       HT       0.417000       1.00800           0
     28744 TIP3     3790     TIP3     H2       HT       0.417000       1.00800           0
     28745 TIP3     3791     TIP3     OH2      OT      -0.834000       15.9994           0
     28746 TIP3     3791     TIP3     H1       HT       0.417000       1.00800           0
     28747 TIP3     3791     TIP3     H2       HT       0.417000       1.00800           0
     28748 TIP3     3792     TIP3     OH2      OT      -0.834000       15.9994           0
     28749 TIP3     3792     TIP3     H1       HT       0.417000       1.00800           0
     28750 TIP3     3792     TIP3     H2       HT       0.417000       1.00800           0
     28751 TIP3     3793     TIP3     OH2      OT      -0.834000       15.9994           0
     28752 TIP3     3793     TIP3     H1       HT       0.417000       1.00800           0
     28753 TIP3     3793     TIP3     H2       HT       0.417000       1.00800           0
     28754 TIP3     3794     TIP3     OH2      OT      -0.834000       15.9994           0
     28755 TIP3     3794     TIP3     H1       HT       0.417000       1.00800           0
     28756 TIP3     3794     TIP3     H2       HT       0.417000       1.00800           0
     28757 TIP3     3795     TIP3     OH2      OT      -0.834000       15.9994           0
     28758 TIP3     3795     TIP3     H1       HT       0.417000       1.00800           0
     28759 TIP3     3795     TIP3     H2       HT       0.417000       1.00800           0
     28760 TIP3     3796     TIP3     OH2      OT      -0.834000       15.9994           0
     28761 TIP3     3796     TIP3     H1       HT       0.417000       1.00800           0
     28762 TIP3     3796     TIP3     H2       HT       0.417000       1.00800           0
     28763 TIP3     3797     TIP3     OH2      OT      -0.834000       15.9994           0
     28764 TIP3     3797     TIP3     H1       HT       0.417000       1.00800           0
     28765 TIP3     3797     TIP3     H2       HT       0.417000       1.00800           0
     28766 TIP3     3798     TIP3     OH2      OT      -0.834000       15.9994           0
     28767 TIP3     3798     TIP3     H1       HT       0.417000       1.00800           0
     28768 TIP3     3798     TIP3     H2       HT       0.417000       1.00800           0
     28769 TIP3     3799     TIP3     OH2      OT      -0.834000       15.9994           0
     28770 TIP3     3799     TIP3     H1       HT       0.417000       1.00800           0
     28771 TIP3     3799     TIP3     H2       HT       0.417000       1.00800           0
     28772 TIP3     3800     TIP3     OH2      OT      -0.834000       15.9994           0
     28773 TIP3     3800     TIP3     H1       HT       0.417000       1.00800           0
     28774 TIP3     3800     TIP3     H2       HT       0.417000       1.00800           0
     28775 TIP3     3801     TIP3     OH2      OT      -0.834000       15.9994           0
     28776 TIP3     3801     TIP3     H1       HT       0.417000       1.00800           0
     28777 TIP3     3801     TIP3     H2       HT       0.417000       1.00800           0
     28778 TIP3     3802     TIP3     OH2      OT      -0.834000       15.9994           0
     28779 TIP3     3802     TIP3     H1       HT       0.417000       1.00800           0
     28780 TIP3     3802     TIP3     H2       HT       0.417000       1.00800           0
     28781 TIP3     3803     TIP3     OH2      OT      -0.834000       15.9994           0
     28782 TIP3     3803     TIP3     H1       HT       0.417000       1.00800           0
     28783 TIP3     3803     TIP3     H2       HT       0.417000       1.00800           0
     28784 TIP3     3804     TIP3     OH2      OT      -0.834000       15.9994           0
     28785 TIP3     3804     TIP3     H1       HT       0.417000       1.00800           0
     28786 TIP3     3804     TIP3     H2       HT       0.417000       1.00800           0
     28787 TIP3     3805     TIP3     OH2      OT      -0.834000       15.9994           0
     28788 TIP3     3805     TIP3     H1       HT       0.417000       1.00800           0
     28789 TIP3     3805     TIP3     H2       HT       0.417000       1.00800           0
     28790 TIP3     3806     TIP3     OH2      OT      -0.834000       15.9994           0
     28791 TIP3     3806     TIP3     H1       HT       0.417000       1.00800           0
     28792 TIP3     3806     TIP3     H2       HT       0.417000       1.00800           0
     28793 TIP3     3807     TIP3     OH2      OT      -0.834000       15.9994           0
     28794 TIP3     3807     TIP3     H1       HT       0.417000       1.00800           0
     28795 TIP3     3807     TIP3     H2       HT       0.417000       1.00800           0
     28796 TIP3     3808     TIP3     OH2      OT      -0.834000       15.9994           0
     28797 TIP3     3808     TIP3     H1       HT       0.417000       1.00800           0
     28798 TIP3     3808     TIP3     H2       HT       0.417000       1.00800           0
     28799 TIP3     3809     TIP3     OH2      OT      -0.834000       15.9994           0
     28800 TIP3     3809     TIP3     H1       HT       0.417000       1.00800           0
     28801 TIP3     3809     TIP3     H2       HT       0.417000       1.00800           0
     28802 TIP3     3810     TIP3     OH2      OT      -0.834000       15.9994           0
     28803 TIP3     3810     TIP3     H1       HT       0.417000       1.00800           0
     28804 TIP3     3810     TIP3     H2       HT       0.417000       1.00800           0
     28805 TIP3     3811     TIP3     OH2      OT      -0.834000       15.9994           0
     28806 TIP3     3811     TIP3     H1       HT       0.417000       1.00800           0
     28807 TIP3     3811     TIP3     H2       HT       0.417000       1.00800           0
     28808 TIP3     3812     TIP3     OH2      OT      -0.834000       15.9994           0
     28809 TIP3     3812     TIP3     H1       HT       0.417000       1.00800           0
     28810 TIP3     3812     TIP3     H2       HT       0.417000       1.00800           0
     28811 TIP3     3813     TIP3     OH2      OT      -0.834000       15.9994           0
     28812 TIP3     3813     TIP3     H1       HT       0.417000       1.00800           0
     28813 TIP3     3813     TIP3     H2       HT       0.417000       1.00800           0
     28814 TIP3     3814     TIP3     OH2      OT      -0.834000       15.9994           0
     28815 TIP3     3814     TIP3     H1       HT       0.417000       1.00800           0
     28816 TIP3     3814     TIP3     H2       HT       0.417000       1.00800           0
     28817 TIP3     3815     TIP3     OH2      OT      -0.834000       15.9994           0
     28818 TIP3     3815     TIP3     H1       HT       0.417000       1.00800           0
     28819 TIP3     3815     TIP3     H2       HT       0.417000       1.00800           0
     28820 TIP3     3816     TIP3     OH2      OT      -0.834000       15.9994           0
     28821 TIP3     3816     TIP3     H1       HT       0.417000       1.00800           0
     28822 TIP3     3816     TIP3     H2       HT       0.417000       1.00800           0
     28823 TIP3     3817     TIP3     OH2      OT      -0.834000       15.9994           0
     28824 TIP3     3817     TIP3     H1       HT       0.417000       1.00800           0
     28825 TIP3     3817     TIP3     H2       HT       0.417000       1.00800           0
     28826 TIP3     3818     TIP3     OH2      OT      -0.834000       15.9994           0
     28827 TIP3     3818     TIP3     H1       HT       0.417000       1.00800           0
     28828 TIP3     3818     TIP3     H2       HT       0.417000       1.00800           0
     28829 TIP3     3819     TIP3     OH2      OT      -0.834000       15.9994           0
     28830 TIP3     3819     TIP3     H1       HT       0.417000       1.00800           0
     28831 TIP3     3819     TIP3     H2       HT       0.417000       1.00800           0
     28832 TIP3     3820     TIP3     OH2      OT      -0.834000       15.9994           0
     28833 TIP3     3820     TIP3     H1       HT       0.417000       1.00800           0
     28834 TIP3     3820     TIP3     H2       HT       0.417000       1.00800           0
     28835 TIP3     3821     TIP3     OH2      OT      -0.834000       15.9994           0
     28836 TIP3     3821     TIP3     H1       HT       0.417000       1.00800           0
     28837 TIP3     3821     TIP3     H2       HT       0.417000       1.00800           0
     28838 TIP3     3822     TIP3     OH2      OT      -0.834000       15.9994           0
     28839 TIP3     3822     TIP3     H1       HT       0.417000       1.00800           0
     28840 TIP3     3822     TIP3     H2       HT       0.417000       1.00800           0
     28841 TIP3     3823     TIP3     OH2      OT      -0.834000       15.9994           0
     28842 TIP3     3823     TIP3     H1       HT       0.417000       1.00800           0
     28843 TIP3     3823     TIP3     H2       HT       0.417000       1.00800           0
     28844 TIP3     3824     TIP3     OH2      OT      -0.834000       15.9994           0
     28845 TIP3     3824     TIP3     H1       HT       0.417000       1.00800           0
     28846 TIP3     3824     TIP3     H2       HT       0.417000       1.00800           0
     28847 TIP3     3825     TIP3     OH2      OT      -0.834000       15.9994           0
     28848 TIP3     3825     TIP3     H1       HT       0.417000       1.00800           0
     28849 TIP3     3825     TIP3     H2       HT       0.417000       1.00800           0
     28850 TIP3     3826     TIP3     OH2      OT      -0.834000       15.9994           0
     28851 TIP3     3826     TIP3     H1       HT       0.417000       1.00800           0
     28852 TIP3     3826     TIP3     H2       HT       0.417000       1.00800           0
     28853 TIP3     3827     TIP3     OH2      OT      -0.834000       15.9994           0
     28854 TIP3     3827     TIP3     H1       HT       0.417000       1.00800           0
     28855 TIP3     3827     TIP3     H2       HT       0.417000       1.00800           0
     28856 TIP3     3828     TIP3     OH2      OT      -0.834000       15.9994           0
     28857 TIP3     3828     TIP3     H1       HT       0.417000       1.00800           0
     28858 TIP3     3828     TIP3     H2       HT       0.417000       1.00800           0
     28859 TIP3     3829     TIP3     OH2      OT      -0.834000       15.9994           0
     28860 TIP3     3829     TIP3     H1       HT       0.417000       1.00800           0
     28861 TIP3     3829     TIP3     H2       HT       0.417000       1.00800           0
     28862 TIP3     3830     TIP3     OH2      OT      -0.834000       15.9994           0
     28863 TIP3     3830     TIP3     H1       HT       0.417000       1.00800           0
     28864 TIP3     3830     TIP3     H2       HT       0.417000       1.00800           0
     28865 TIP3     3831     TIP3     OH2      OT      -0.834000       15.9994           0
     28866 TIP3     3831     TIP3     H1       HT       0.417000       1.00800           0
     28867 TIP3     3831     TIP3     H2       HT       0.417000       1.00800           0
     28868 TIP3     3832     TIP3     OH2      OT      -0.834000       15.9994           0
     28869 TIP3     3832     TIP3     H1       HT       0.417000       1.00800           0
     28870 TIP3     3832     TIP3     H2       HT       0.417000       1.00800           0
     28871 TIP3     3833     TIP3     OH2      OT      -0.834000       15.9994           0
     28872 TIP3     3833     TIP3     H1       HT       0.417000       1.00800           0
     28873 TIP3     3833     TIP3     H2       HT       0.417000       1.00800           0
     28874 TIP3     3834     TIP3     OH2      OT      -0.834000       15.9994           0
     28875 TIP3     3834     TIP3     H1       HT       0.417000       1.00800           0
     28876 TIP3     3834     TIP3     H2       HT       0.417000       1.00800           0
     28877 TIP3     3835     TIP3     OH2      OT      -0.834000       15.9994           0
     28878 TIP3     3835     TIP3     H1       HT       0.417000       1.00800           0
     28879 TIP3     3835     TIP3     H2       HT       0.417000       1.00800           0
     28880 TIP3     3836     TIP3     OH2      OT      -0.834000       15.9994           0
     28881 TIP3     3836     TIP3     H1       HT       0.417000       1.00800           0
     28882 TIP3     3836     TIP3     H2       HT       0.417000       1.00800           0
     28883 TIP3     3837     TIP3     OH2      OT      -0.834000       15.9994           0
     28884 TIP3     3837     TIP3     H1       HT       0.417000       1.00800           0
     28885 TIP3     3837     TIP3     H2       HT       0.417000       1.00800           0
     28886 TIP3     3838     TIP3     OH2      OT      -0.834000       15.9994           0
     28887 TIP3     3838     TIP3     H1       HT       0.417000       1.00800           0
     28888 TIP3     3838     TIP3     H2       HT       0.417000       1.00800           0
     28889 TIP3     3839     TIP3     OH2      OT      -0.834000       15.9994           0
     28890 TIP3     3839     TIP3     H1       HT       0.417000       1.00800           0
     28891 TIP3     3839     TIP3     H2       HT       0.417000       1.00800           0
     28892 TIP3     3840     TIP3     OH2      OT      -0.834000       15.9994           0
     28893 TIP3     3840     TIP3     H1       HT       0.417000       1.00800           0
     28894 TIP3     3840     TIP3     H2       HT       0.417000       1.00800           0
     28895 TIP3     3841     TIP3     OH2      OT      -0.834000       15.9994           0
     28896 TIP3     3841     TIP3     H1       HT       0.417000       1.00800           0
     28897 TIP3     3841     TIP3     H2       HT       0.417000       1.00800           0
     28898 TIP3     3842     TIP3     OH2      OT      -0.834000       15.9994           0
     28899 TIP3     3842     TIP3     H1       HT       0.417000       1.00800           0
     28900 TIP3     3842     TIP3     H2       HT       0.417000       1.00800           0
     28901 TIP3     3843     TIP3     OH2      OT      -0.834000       15.9994           0
     28902 TIP3     3843     TIP3     H1       HT       0.417000       1.00800           0
     28903 TIP3     3843     TIP3     H2       HT       0.417000       1.00800           0
     28904 TIP3     3844     TIP3     OH2      OT      -0.834000       15.9994           0
     28905 TIP3     3844     TIP3     H1       HT       0.417000       1.00800           0
     28906 TIP3     3844     TIP3     H2       HT       0.417000       1.00800           0
     28907 TIP3     3845     TIP3     OH2      OT      -0.834000       15.9994           0
     28908 TIP3     3845     TIP3     H1       HT       0.417000       1.00800           0
     28909 TIP3     3845     TIP3     H2       HT       0.417000       1.00800           0
     28910 TIP3     3846     TIP3     OH2      OT      -0.834000       15.9994           0
     28911 TIP3     3846     TIP3     H1       HT       0.417000       1.00800           0
     28912 TIP3     3846     TIP3     H2       HT       0.417000       1.00800           0
     28913 TIP3     3847     TIP3     OH2      OT      -0.834000       15.9994           0
     28914 TIP3     3847     TIP3     H1       HT       0.417000       1.00800           0
     28915 TIP3     3847     TIP3     H2       HT       0.417000       1.00800           0
     28916 TIP3     3848     TIP3     OH2      OT      -0.834000       15.9994           0
     28917 TIP3     3848     TIP3     H1       HT       0.417000       1.00800           0
     28918 TIP3     3848     TIP3     H2       HT       0.417000       1.00800           0
     28919 TIP3     3849     TIP3     OH2      OT      -0.834000       15.9994           0
     28920 TIP3     3849     TIP3     H1       HT       0.417000       1.00800           0
     28921 TIP3     3849     TIP3     H2       HT       0.417000       1.00800           0
     28922 TIP3     3850     TIP3     OH2      OT      -0.834000       15.9994           0
     28923 TIP3     3850     TIP3     H1       HT       0.417000       1.00800           0
     28924 TIP3     3850     TIP3     H2       HT       0.417000       1.00800           0
     28925 TIP3     3851     TIP3     OH2      OT      -0.834000       15.9994           0
     28926 TIP3     3851     TIP3     H1       HT       0.417000       1.00800           0
     28927 TIP3     3851     TIP3     H2       HT       0.417000       1.00800           0
     28928 TIP3     3852     TIP3     OH2      OT      -0.834000       15.9994           0
     28929 TIP3     3852     TIP3     H1       HT       0.417000       1.00800           0
     28930 TIP3     3852     TIP3     H2       HT       0.417000       1.00800           0
     28931 TIP3     3853     TIP3     OH2      OT      -0.834000       15.9994           0
     28932 TIP3     3853     TIP3     H1       HT       0.417000       1.00800           0
     28933 TIP3     3853     TIP3     H2       HT       0.417000       1.00800           0
     28934 TIP3     3854     TIP3     OH2      OT      -0.834000       15.9994           0
     28935 TIP3     3854     TIP3     H1       HT       0.417000       1.00800           0
     28936 TIP3     3854     TIP3     H2       HT       0.417000       1.00800           0
     28937 TIP3     3855     TIP3     OH2      OT      -0.834000       15.9994           0
     28938 TIP3     3855     TIP3     H1       HT       0.417000       1.00800           0
     28939 TIP3     3855     TIP3     H2       HT       0.417000       1.00800           0
     28940 TIP3     3856     TIP3     OH2      OT      -0.834000       15.9994           0
     28941 TIP3     3856     TIP3     H1       HT       0.417000       1.00800           0
     28942 TIP3     3856     TIP3     H2       HT       0.417000       1.00800           0
     28943 TIP3     3857     TIP3     OH2      OT      -0.834000       15.9994           0
     28944 TIP3     3857     TIP3     H1       HT       0.417000       1.00800           0
     28945 TIP3     3857     TIP3     H2       HT       0.417000       1.00800           0
     28946 TIP3     3858     TIP3     OH2      OT      -0.834000       15.9994           0
     28947 TIP3     3858     TIP3     H1       HT       0.417000       1.00800           0
     28948 TIP3     3858     TIP3     H2       HT       0.417000       1.00800           0
     28949 TIP3     3859     TIP3     OH2      OT      -0.834000       15.9994           0
     28950 TIP3     3859     TIP3     H1       HT       0.417000       1.00800           0
     28951 TIP3     3859     TIP3     H2       HT       0.417000       1.00800           0
     28952 TIP3     3860     TIP3     OH2      OT      -0.834000       15.9994           0
     28953 TIP3     3860     TIP3     H1       HT       0.417000       1.00800           0
     28954 TIP3     3860     TIP3     H2       HT       0.417000       1.00800           0
     28955 TIP3     3861     TIP3     OH2      OT      -0.834000       15.9994           0
     28956 TIP3     3861     TIP3     H1       HT       0.417000       1.00800           0
     28957 TIP3     3861     TIP3     H2       HT       0.417000       1.00800           0
     28958 TIP3     3862     TIP3     OH2      OT      -0.834000       15.9994           0
     28959 TIP3     3862     TIP3     H1       HT       0.417000       1.00800           0
     28960 TIP3     3862     TIP3     H2       HT       0.417000       1.00800           0
     28961 TIP3     3863     TIP3     OH2      OT      -0.834000       15.9994           0
     28962 TIP3     3863     TIP3     H1       HT       0.417000       1.00800           0
     28963 TIP3     3863     TIP3     H2       HT       0.417000       1.00800           0
     28964 TIP3     3864     TIP3     OH2      OT      -0.834000       15.9994           0
     28965 TIP3     3864     TIP3     H1       HT       0.417000       1.00800           0
     28966 TIP3     3864     TIP3     H2       HT       0.417000       1.00800           0
     28967 TIP3     3865     TIP3     OH2      OT      -0.834000       15.9994           0
     28968 TIP3     3865     TIP3     H1       HT       0.417000       1.00800           0
     28969 TIP3     3865     TIP3     H2       HT       0.417000       1.00800           0
     28970 TIP3     3866     TIP3     OH2      OT      -0.834000       15.9994           0
     28971 TIP3     3866     TIP3     H1       HT       0.417000       1.00800           0
     28972 TIP3     3866     TIP3     H2       HT       0.417000       1.00800           0
     28973 TIP3     3867     TIP3     OH2      OT      -0.834000       15.9994           0
     28974 TIP3     3867     TIP3     H1       HT       0.417000       1.00800           0
     28975 TIP3     3867     TIP3     H2       HT       0.417000       1.00800           0
     28976 TIP3     3868     TIP3     OH2      OT      -0.834000       15.9994           0
     28977 TIP3     3868     TIP3     H1       HT       0.417000       1.00800           0
     28978 TIP3     3868     TIP3     H2       HT       0.417000       1.00800           0
     28979 TIP3     3869     TIP3     OH2      OT      -0.834000       15.9994           0
     28980 TIP3     3869     TIP3     H1       HT       0.417000       1.00800           0
     28981 TIP3     3869     TIP3     H2       HT       0.417000       1.00800           0
     28982 TIP3     3870     TIP3     OH2      OT      -0.834000       15.9994           0
     28983 TIP3     3870     TIP3     H1       HT       0.417000       1.00800           0
     28984 TIP3     3870     TIP3     H2       HT       0.417000       1.00800           0
     28985 TIP3     3871     TIP3     OH2      OT      -0.834000       15.9994           0
     28986 TIP3     3871     TIP3     H1       HT       0.417000       1.00800           0
     28987 TIP3     3871     TIP3     H2       HT       0.417000       1.00800           0
     28988 TIP3     3872     TIP3     OH2      OT      -0.834000       15.9994           0
     28989 TIP3     3872     TIP3     H1       HT       0.417000       1.00800           0
     28990 TIP3     3872     TIP3     H2       HT       0.417000       1.00800           0
     28991 TIP3     3873     TIP3     OH2      OT      -0.834000       15.9994           0
     28992 TIP3     3873     TIP3     H1       HT       0.417000       1.00800           0
     28993 TIP3     3873     TIP3     H2       HT       0.417000       1.00800           0
     28994 TIP3     3874     TIP3     OH2      OT      -0.834000       15.9994           0
     28995 TIP3     3874     TIP3     H1       HT       0.417000       1.00800           0
     28996 TIP3     3874     TIP3     H2       HT       0.417000       1.00800           0
     28997 TIP3     3875     TIP3     OH2      OT      -0.834000       15.9994           0
     28998 TIP3     3875     TIP3     H1       HT       0.417000       1.00800           0
     28999 TIP3     3875     TIP3     H2       HT       0.417000       1.00800           0
     29000 TIP3     3876     TIP3     OH2      OT      -0.834000       15.9994           0
     29001 TIP3     3876     TIP3     H1       HT       0.417000       1.00800           0
     29002 TIP3     3876     TIP3     H2       HT       0.417000       1.00800           0
     29003 TIP3     3877     TIP3     OH2      OT      -0.834000       15.9994           0
     29004 TIP3     3877     TIP3     H1       HT       0.417000       1.00800           0
     29005 TIP3     3877     TIP3     H2       HT       0.417000       1.00800           0
     29006 TIP3     3878     TIP3     OH2      OT      -0.834000       15.9994           0
     29007 TIP3     3878     TIP3     H1       HT       0.417000       1.00800           0
     29008 TIP3     3878     TIP3     H2       HT       0.417000       1.00800           0
     29009 TIP3     3879     TIP3     OH2      OT      -0.834000       15.9994           0
     29010 TIP3     3879     TIP3     H1       HT       0.417000       1.00800           0
     29011 TIP3     3879     TIP3     H2       HT       0.417000       1.00800           0
     29012 TIP3     3880     TIP3     OH2      OT      -0.834000       15.9994           0
     29013 TIP3     3880     TIP3     H1       HT       0.417000       1.00800           0
     29014 TIP3     3880     TIP3     H2       HT       0.417000       1.00800           0
     29015 TIP3     3881     TIP3     OH2      OT      -0.834000       15.9994           0
     29016 TIP3     3881     TIP3     H1       HT       0.417000       1.00800           0
     29017 TIP3     3881     TIP3     H2       HT       0.417000       1.00800           0
     29018 TIP3     3882     TIP3     OH2      OT      -0.834000       15.9994           0
     29019 TIP3     3882     TIP3     H1       HT       0.417000       1.00800           0
     29020 TIP3     3882     TIP3     H2       HT       0.417000       1.00800           0
     29021 TIP3     3883     TIP3     OH2      OT      -0.834000       15.9994           0
     29022 TIP3     3883     TIP3     H1       HT       0.417000       1.00800           0
     29023 TIP3     3883     TIP3     H2       HT       0.417000       1.00800           0
     29024 TIP3     3884     TIP3     OH2      OT      -0.834000       15.9994           0
     29025 TIP3     3884     TIP3     H1       HT       0.417000       1.00800           0
     29026 TIP3     3884     TIP3     H2       HT       0.417000       1.00800           0
     29027 TIP3     3885     TIP3     OH2      OT      -0.834000       15.9994           0
     29028 TIP3     3885     TIP3     H1       HT       0.417000       1.00800           0
     29029 TIP3     3885     TIP3     H2       HT       0.417000       1.00800           0
     29030 TIP3     3886     TIP3     OH2      OT      -0.834000       15.9994           0
     29031 TIP3     3886     TIP3     H1       HT       0.417000       1.00800           0
     29032 TIP3     3886     TIP3     H2       HT       0.417000       1.00800           0
     29033 TIP3     3887     TIP3     OH2      OT      -0.834000       15.9994           0
     29034 TIP3     3887     TIP3     H1       HT       0.417000       1.00800           0
     29035 TIP3     3887     TIP3     H2       HT       0.417000       1.00800           0
     29036 TIP3     3888     TIP3     OH2      OT      -0.834000       15.9994           0
     29037 TIP3     3888     TIP3     H1       HT       0.417000       1.00800           0
     29038 TIP3     3888     TIP3     H2       HT       0.417000       1.00800           0
     29039 TIP3     3889     TIP3     OH2      OT      -0.834000       15.9994           0
     29040 TIP3     3889     TIP3     H1       HT       0.417000       1.00800           0
     29041 TIP3     3889     TIP3     H2       HT       0.417000       1.00800           0
     29042 TIP3     3890     TIP3     OH2      OT      -0.834000       15.9994           0
     29043 TIP3     3890     TIP3     H1       HT       0.417000       1.00800           0
     29044 TIP3     3890     TIP3     H2       HT       0.417000       1.00800           0
     29045 TIP3     3891     TIP3     OH2      OT      -0.834000       15.9994           0
     29046 TIP3     3891     TIP3     H1       HT       0.417000       1.00800           0
     29047 TIP3     3891     TIP3     H2       HT       0.417000       1.00800           0
     29048 TIP3     3892     TIP3     OH2      OT      -0.834000       15.9994           0
     29049 TIP3     3892     TIP3     H1       HT       0.417000       1.00800           0
     29050 TIP3     3892     TIP3     H2       HT       0.417000       1.00800           0
     29051 TIP3     3893     TIP3     OH2      OT      -0.834000       15.9994           0
     29052 TIP3     3893     TIP3     H1       HT       0.417000       1.00800           0
     29053 TIP3     3893     TIP3     H2       HT       0.417000       1.00800           0
     29054 TIP3     3894     TIP3     OH2      OT      -0.834000       15.9994           0
     29055 TIP3     3894     TIP3     H1       HT       0.417000       1.00800           0
     29056 TIP3     3894     TIP3     H2       HT       0.417000       1.00800           0
     29057 TIP3     3895     TIP3     OH2      OT      -0.834000       15.9994           0
     29058 TIP3     3895     TIP3     H1       HT       0.417000       1.00800           0
     29059 TIP3     3895     TIP3     H2       HT       0.417000       1.00800           0
     29060 TIP3     3896     TIP3     OH2      OT      -0.834000       15.9994           0
     29061 TIP3     3896     TIP3     H1       HT       0.417000       1.00800           0
     29062 TIP3     3896     TIP3     H2       HT       0.417000       1.00800           0
     29063 TIP3     3897     TIP3     OH2      OT      -0.834000       15.9994           0
     29064 TIP3     3897     TIP3     H1       HT       0.417000       1.00800           0
     29065 TIP3     3897     TIP3     H2       HT       0.417000       1.00800           0
     29066 TIP3     3898     TIP3     OH2      OT      -0.834000       15.9994           0
     29067 TIP3     3898     TIP3     H1       HT       0.417000       1.00800           0
     29068 TIP3     3898     TIP3     H2       HT       0.417000       1.00800           0
     29069 TIP3     3899     TIP3     OH2      OT      -0.834000       15.9994           0
     29070 TIP3     3899     TIP3     H1       HT       0.417000       1.00800           0
     29071 TIP3     3899     TIP3     H2       HT       0.417000       1.00800           0
     29072 TIP3     3900     TIP3     OH2      OT      -0.834000       15.9994           0
     29073 TIP3     3900     TIP3     H1       HT       0.417000       1.00800           0
     29074 TIP3     3900     TIP3     H2       HT       0.417000       1.00800           0
     29075 TIP3     3901     TIP3     OH2      OT      -0.834000       15.9994           0
     29076 TIP3     3901     TIP3     H1       HT       0.417000       1.00800           0
     29077 TIP3     3901     TIP3     H2       HT       0.417000       1.00800           0
     29078 TIP3     3902     TIP3     OH2      OT      -0.834000       15.9994           0
     29079 TIP3     3902     TIP3     H1       HT       0.417000       1.00800           0
     29080 TIP3     3902     TIP3     H2       HT       0.417000       1.00800           0
     29081 TIP3     3903     TIP3     OH2      OT      -0.834000       15.9994           0
     29082 TIP3     3903     TIP3     H1       HT       0.417000       1.00800           0
     29083 TIP3     3903     TIP3     H2       HT       0.417000       1.00800           0
     29084 TIP3     3904     TIP3     OH2      OT      -0.834000       15.9994           0
     29085 TIP3     3904     TIP3     H1       HT       0.417000       1.00800           0
     29086 TIP3     3904     TIP3     H2       HT       0.417000       1.00800           0
     29087 TIP3     3905     TIP3     OH2      OT      -0.834000       15.9994           0
     29088 TIP3     3905     TIP3     H1       HT       0.417000       1.00800           0
     29089 TIP3     3905     TIP3     H2       HT       0.417000       1.00800           0
     29090 TIP3     3906     TIP3     OH2      OT      -0.834000       15.9994           0
     29091 TIP3     3906     TIP3     H1       HT       0.417000       1.00800           0
     29092 TIP3     3906     TIP3     H2       HT       0.417000       1.00800           0
     29093 TIP3     3907     TIP3     OH2      OT      -0.834000       15.9994           0
     29094 TIP3     3907     TIP3     H1       HT       0.417000       1.00800           0
     29095 TIP3     3907     TIP3     H2       HT       0.417000       1.00800           0
     29096 TIP3     3908     TIP3     OH2      OT      -0.834000       15.9994           0
     29097 TIP3     3908     TIP3     H1       HT       0.417000       1.00800           0
     29098 TIP3     3908     TIP3     H2       HT       0.417000       1.00800           0
     29099 TIP3     3909     TIP3     OH2      OT      -0.834000       15.9994           0
     29100 TIP3     3909     TIP3     H1       HT       0.417000       1.00800           0
     29101 TIP3     3909     TIP3     H2       HT       0.417000       1.00800           0
     29102 TIP3     3910     TIP3     OH2      OT      -0.834000       15.9994           0
     29103 TIP3     3910     TIP3     H1       HT       0.417000       1.00800           0
     29104 TIP3     3910     TIP3     H2       HT       0.417000       1.00800           0
     29105 TIP3     3911     TIP3     OH2      OT      -0.834000       15.9994           0
     29106 TIP3     3911     TIP3     H1       HT       0.417000       1.00800           0
     29107 TIP3     3911     TIP3     H2       HT       0.417000       1.00800           0
     29108 TIP3     3912     TIP3     OH2      OT      -0.834000       15.9994           0
     29109 TIP3     3912     TIP3     H1       HT       0.417000       1.00800           0
     29110 TIP3     3912     TIP3     H2       HT       0.417000       1.00800           0
     29111 TIP3     3913     TIP3     OH2      OT      -0.834000       15.9994           0
     29112 TIP3     3913     TIP3     H1       HT       0.417000       1.00800           0
     29113 TIP3     3913     TIP3     H2       HT       0.417000       1.00800           0
     29114 TIP3     3914     TIP3     OH2      OT      -0.834000       15.9994           0
     29115 TIP3     3914     TIP3     H1       HT       0.417000       1.00800           0
     29116 TIP3     3914     TIP3     H2       HT       0.417000       1.00800           0
     29117 TIP3     3915     TIP3     OH2      OT      -0.834000       15.9994           0
     29118 TIP3     3915     TIP3     H1       HT       0.417000       1.00800           0
     29119 TIP3     3915     TIP3     H2       HT       0.417000       1.00800           0
     29120 TIP3     3916     TIP3     OH2      OT      -0.834000       15.9994           0
     29121 TIP3     3916     TIP3     H1       HT       0.417000       1.00800           0
     29122 TIP3     3916     TIP3     H2       HT       0.417000       1.00800           0
     29123 TIP3     3917     TIP3     OH2      OT      -0.834000       15.9994           0
     29124 TIP3     3917     TIP3     H1       HT       0.417000       1.00800           0
     29125 TIP3     3917     TIP3     H2       HT       0.417000       1.00800           0
     29126 TIP3     3918     TIP3     OH2      OT      -0.834000       15.9994           0
     29127 TIP3     3918     TIP3     H1       HT       0.417000       1.00800           0
     29128 TIP3     3918     TIP3     H2       HT       0.417000       1.00800           0
     29129 TIP3     3919     TIP3     OH2      OT      -0.834000       15.9994           0
     29130 TIP3     3919     TIP3     H1       HT       0.417000       1.00800           0
     29131 TIP3     3919     TIP3     H2       HT       0.417000       1.00800           0
     29132 TIP3     3920     TIP3     OH2      OT      -0.834000       15.9994           0
     29133 TIP3     3920     TIP3     H1       HT       0.417000       1.00800           0
     29134 TIP3     3920     TIP3     H2       HT       0.417000       1.00800           0
     29135 TIP3     3921     TIP3     OH2      OT      -0.834000       15.9994           0
     29136 TIP3     3921     TIP3     H1       HT       0.417000       1.00800           0
     29137 TIP3     3921     TIP3     H2       HT       0.417000       1.00800           0
     29138 TIP3     3922     TIP3     OH2      OT      -0.834000       15.9994           0
     29139 TIP3     3922     TIP3     H1       HT       0.417000       1.00800           0
     29140 TIP3     3922     TIP3     H2       HT       0.417000       1.00800           0
     29141 TIP3     3923     TIP3     OH2      OT      -0.834000       15.9994           0
     29142 TIP3     3923     TIP3     H1       HT       0.417000       1.00800           0
     29143 TIP3     3923     TIP3     H2       HT       0.417000       1.00800           0
     29144 TIP3     3924     TIP3     OH2      OT      -0.834000       15.9994           0
     29145 TIP3     3924     TIP3     H1       HT       0.417000       1.00800           0
     29146 TIP3     3924     TIP3     H2       HT       0.417000       1.00800           0
     29147 TIP3     3925     TIP3     OH2      OT      -0.834000       15.9994           0
     29148 TIP3     3925     TIP3     H1       HT       0.417000       1.00800           0
     29149 TIP3     3925     TIP3     H2       HT       0.417000       1.00800           0
     29150 TIP3     3926     TIP3     OH2      OT      -0.834000       15.9994           0
     29151 TIP3     3926     TIP3     H1       HT       0.417000       1.00800           0
     29152 TIP3     3926     TIP3     H2       HT       0.417000       1.00800           0
     29153 TIP3     3927     TIP3     OH2      OT      -0.834000       15.9994           0
     29154 TIP3     3927     TIP3     H1       HT       0.417000       1.00800           0
     29155 TIP3     3927     TIP3     H2       HT       0.417000       1.00800           0
     29156 TIP3     3928     TIP3     OH2      OT      -0.834000       15.9994           0
     29157 TIP3     3928     TIP3     H1       HT       0.417000       1.00800           0
     29158 TIP3     3928     TIP3     H2       HT       0.417000       1.00800           0
     29159 TIP3     3929     TIP3     OH2      OT      -0.834000       15.9994           0
     29160 TIP3     3929     TIP3     H1       HT       0.417000       1.00800           0
     29161 TIP3     3929     TIP3     H2       HT       0.417000       1.00800           0
     29162 TIP3     3930     TIP3     OH2      OT      -0.834000       15.9994           0
     29163 TIP3     3930     TIP3     H1       HT       0.417000       1.00800           0
     29164 TIP3     3930     TIP3     H2       HT       0.417000       1.00800           0
     29165 TIP3     3931     TIP3     OH2      OT      -0.834000       15.9994           0
     29166 TIP3     3931     TIP3     H1       HT       0.417000       1.00800           0
     29167 TIP3     3931     TIP3     H2       HT       0.417000       1.00800           0
     29168 TIP3     3932     TIP3     OH2      OT      -0.834000       15.9994           0
     29169 TIP3     3932     TIP3     H1       HT       0.417000       1.00800           0
     29170 TIP3     3932     TIP3     H2       HT       0.417000       1.00800           0
     29171 TIP3     3933     TIP3     OH2      OT      -0.834000       15.9994           0
     29172 TIP3     3933     TIP3     H1       HT       0.417000       1.00800           0
     29173 TIP3     3933     TIP3     H2       HT       0.417000       1.00800           0
     29174 TIP3     3934     TIP3     OH2      OT      -0.834000       15.9994           0
     29175 TIP3     3934     TIP3     H1       HT       0.417000       1.00800           0
     29176 TIP3     3934     TIP3     H2       HT       0.417000       1.00800           0
     29177 TIP3     3935     TIP3     OH2      OT      -0.834000       15.9994           0
     29178 TIP3     3935     TIP3     H1       HT       0.417000       1.00800           0
     29179 TIP3     3935     TIP3     H2       HT       0.417000       1.00800           0
     29180 TIP3     3936     TIP3     OH2      OT      -0.834000       15.9994           0
     29181 TIP3     3936     TIP3     H1       HT       0.417000       1.00800           0
     29182 TIP3     3936     TIP3     H2       HT       0.417000       1.00800           0
     29183 TIP3     3937     TIP3     OH2      OT      -0.834000       15.9994           0
     29184 TIP3     3937     TIP3     H1       HT       0.417000       1.00800           0
     29185 TIP3     3937     TIP3     H2       HT       0.417000       1.00800           0
     29186 TIP3     3938     TIP3     OH2      OT      -0.834000       15.9994           0
     29187 TIP3     3938     TIP3     H1       HT       0.417000       1.00800           0
     29188 TIP3     3938     TIP3     H2       HT       0.417000       1.00800           0
     29189 TIP3     3939     TIP3     OH2      OT      -0.834000       15.9994           0
     29190 TIP3     3939     TIP3     H1       HT       0.417000       1.00800           0
     29191 TIP3     3939     TIP3     H2       HT       0.417000       1.00800           0
     29192 TIP3     3940     TIP3     OH2      OT      -0.834000       15.9994           0
     29193 TIP3     3940     TIP3     H1       HT       0.417000       1.00800           0
     29194 TIP3     3940     TIP3     H2       HT       0.417000       1.00800           0
     29195 TIP3     3941     TIP3     OH2      OT      -0.834000       15.9994           0
     29196 TIP3     3941     TIP3     H1       HT       0.417000       1.00800           0
     29197 TIP3     3941     TIP3     H2       HT       0.417000       1.00800           0
     29198 TIP3     3942     TIP3     OH2      OT      -0.834000       15.9994           0
     29199 TIP3     3942     TIP3     H1       HT       0.417000       1.00800           0
     29200 TIP3     3942     TIP3     H2       HT       0.417000       1.00800           0
     29201 TIP3     3943     TIP3     OH2      OT      -0.834000       15.9994           0
     29202 TIP3     3943     TIP3     H1       HT       0.417000       1.00800           0
     29203 TIP3     3943     TIP3     H2       HT       0.417000       1.00800           0
     29204 TIP3     3944     TIP3     OH2      OT      -0.834000       15.9994           0
     29205 TIP3     3944     TIP3     H1       HT       0.417000       1.00800           0
     29206 TIP3     3944     TIP3     H2       HT       0.417000       1.00800           0
     29207 TIP3     3945     TIP3     OH2      OT      -0.834000       15.9994           0
     29208 TIP3     3945     TIP3     H1       HT       0.417000       1.00800           0
     29209 TIP3     3945     TIP3     H2       HT       0.417000       1.00800           0
     29210 TIP3     3946     TIP3     OH2      OT      -0.834000       15.9994           0
     29211 TIP3     3946     TIP3     H1       HT       0.417000       1.00800           0
     29212 TIP3     3946     TIP3     H2       HT       0.417000       1.00800           0
     29213 TIP3     3947     TIP3     OH2      OT      -0.834000       15.9994           0
     29214 TIP3     3947     TIP3     H1       HT       0.417000       1.00800           0
     29215 TIP3     3947     TIP3     H2       HT       0.417000       1.00800           0
     29216 TIP3     3948     TIP3     OH2      OT      -0.834000       15.9994           0
     29217 TIP3     3948     TIP3     H1       HT       0.417000       1.00800           0
     29218 TIP3     3948     TIP3     H2       HT       0.417000       1.00800           0
     29219 TIP3     3949     TIP3     OH2      OT      -0.834000       15.9994           0
     29220 TIP3     3949     TIP3     H1       HT       0.417000       1.00800           0
     29221 TIP3     3949     TIP3     H2       HT       0.417000       1.00800           0
     29222 TIP3     3950     TIP3     OH2      OT      -0.834000       15.9994           0
     29223 TIP3     3950     TIP3     H1       HT       0.417000       1.00800           0
     29224 TIP3     3950     TIP3     H2       HT       0.417000       1.00800           0
     29225 TIP3     3951     TIP3     OH2      OT      -0.834000       15.9994           0
     29226 TIP3     3951     TIP3     H1       HT       0.417000       1.00800           0
     29227 TIP3     3951     TIP3     H2       HT       0.417000       1.00800           0
     29228 TIP3     3952     TIP3     OH2      OT      -0.834000       15.9994           0
     29229 TIP3     3952     TIP3     H1       HT       0.417000       1.00800           0
     29230 TIP3     3952     TIP3     H2       HT       0.417000       1.00800           0
     29231 TIP3     3953     TIP3     OH2      OT      -0.834000       15.9994           0
     29232 TIP3     3953     TIP3     H1       HT       0.417000       1.00800           0
     29233 TIP3     3953     TIP3     H2       HT       0.417000       1.00800           0
     29234 TIP3     3954     TIP3     OH2      OT      -0.834000       15.9994           0
     29235 TIP3     3954     TIP3     H1       HT       0.417000       1.00800           0
     29236 TIP3     3954     TIP3     H2       HT       0.417000       1.00800           0
     29237 TIP3     3955     TIP3     OH2      OT      -0.834000       15.9994           0
     29238 TIP3     3955     TIP3     H1       HT       0.417000       1.00800           0
     29239 TIP3     3955     TIP3     H2       HT       0.417000       1.00800           0
     29240 TIP3     3956     TIP3     OH2      OT      -0.834000       15.9994           0
     29241 TIP3     3956     TIP3     H1       HT       0.417000       1.00800           0
     29242 TIP3     3956     TIP3     H2       HT       0.417000       1.00800           0
     29243 TIP3     3957     TIP3     OH2      OT      -0.834000       15.9994           0
     29244 TIP3     3957     TIP3     H1       HT       0.417000       1.00800           0
     29245 TIP3     3957     TIP3     H2       HT       0.417000       1.00800           0
     29246 TIP3     3958     TIP3     OH2      OT      -0.834000       15.9994           0
     29247 TIP3     3958     TIP3     H1       HT       0.417000       1.00800           0
     29248 TIP3     3958     TIP3     H2       HT       0.417000       1.00800           0
     29249 TIP3     3959     TIP3     OH2      OT      -0.834000       15.9994           0
     29250 TIP3     3959     TIP3     H1       HT       0.417000       1.00800           0
     29251 TIP3     3959     TIP3     H2       HT       0.417000       1.00800           0
     29252 TIP3     3960     TIP3     OH2      OT      -0.834000       15.9994           0
     29253 TIP3     3960     TIP3     H1       HT       0.417000       1.00800           0
     29254 TIP3     3960     TIP3     H2       HT       0.417000       1.00800           0
     29255 TIP3     3961     TIP3     OH2      OT      -0.834000       15.9994           0
     29256 TIP3     3961     TIP3     H1       HT       0.417000       1.00800           0
     29257 TIP3     3961     TIP3     H2       HT       0.417000       1.00800           0
     29258 TIP3     3962     TIP3     OH2      OT      -0.834000       15.9994           0
     29259 TIP3     3962     TIP3     H1       HT       0.417000       1.00800           0
     29260 TIP3     3962     TIP3     H2       HT       0.417000       1.00800           0
     29261 TIP3     3963     TIP3     OH2      OT      -0.834000       15.9994           0
     29262 TIP3     3963     TIP3     H1       HT       0.417000       1.00800           0
     29263 TIP3     3963     TIP3     H2       HT       0.417000       1.00800           0
     29264 TIP3     3964     TIP3     OH2      OT      -0.834000       15.9994           0
     29265 TIP3     3964     TIP3     H1       HT       0.417000       1.00800           0
     29266 TIP3     3964     TIP3     H2       HT       0.417000       1.00800           0
     29267 TIP3     3965     TIP3     OH2      OT      -0.834000       15.9994           0
     29268 TIP3     3965     TIP3     H1       HT       0.417000       1.00800           0
     29269 TIP3     3965     TIP3     H2       HT       0.417000       1.00800           0
     29270 TIP3     3966     TIP3     OH2      OT      -0.834000       15.9994           0
     29271 TIP3     3966     TIP3     H1       HT       0.417000       1.00800           0
     29272 TIP3     3966     TIP3     H2       HT       0.417000       1.00800           0
     29273 TIP3     3967     TIP3     OH2      OT      -0.834000       15.9994           0
     29274 TIP3     3967     TIP3     H1       HT       0.417000       1.00800           0
     29275 TIP3     3967     TIP3     H2       HT       0.417000       1.00800           0
     29276 TIP3     3968     TIP3     OH2      OT      -0.834000       15.9994           0
     29277 TIP3     3968     TIP3     H1       HT       0.417000       1.00800           0
     29278 TIP3     3968     TIP3     H2       HT       0.417000       1.00800           0
     29279 TIP3     3969     TIP3     OH2      OT      -0.834000       15.9994           0
     29280 TIP3     3969     TIP3     H1       HT       0.417000       1.00800           0
     29281 TIP3     3969     TIP3     H2       HT       0.417000       1.00800           0
     29282 TIP3     3970     TIP3     OH2      OT      -0.834000       15.9994           0
     29283 TIP3     3970     TIP3     H1       HT       0.417000       1.00800           0
     29284 TIP3     3970     TIP3     H2       HT       0.417000       1.00800           0
     29285 TIP3     3971     TIP3     OH2      OT      -0.834000       15.9994           0
     29286 TIP3     3971     TIP3     H1       HT       0.417000       1.00800           0
     29287 TIP3     3971     TIP3     H2       HT       0.417000       1.00800           0
     29288 TIP3     3972     TIP3     OH2      OT      -0.834000       15.9994           0
     29289 TIP3     3972     TIP3     H1       HT       0.417000       1.00800           0
     29290 TIP3     3972     TIP3     H2       HT       0.417000       1.00800           0
     29291 TIP3     3973     TIP3     OH2      OT      -0.834000       15.9994           0
     29292 TIP3     3973     TIP3     H1       HT       0.417000       1.00800           0
     29293 TIP3     3973     TIP3     H2       HT       0.417000       1.00800           0
     29294 TIP3     3974     TIP3     OH2      OT      -0.834000       15.9994           0
     29295 TIP3     3974     TIP3     H1       HT       0.417000       1.00800           0
     29296 TIP3     3974     TIP3     H2       HT       0.417000       1.00800           0
     29297 TIP3     3975     TIP3     OH2      OT      -0.834000       15.9994           0
     29298 TIP3     3975     TIP3     H1       HT       0.417000       1.00800           0
     29299 TIP3     3975     TIP3     H2       HT       0.417000       1.00800           0
     29300 TIP3     3976     TIP3     OH2      OT      -0.834000       15.9994           0
     29301 TIP3     3976     TIP3     H1       HT       0.417000       1.00800           0
     29302 TIP3     3976     TIP3     H2       HT       0.417000       1.00800           0
     29303 TIP3     3977     TIP3     OH2      OT      -0.834000       15.9994           0
     29304 TIP3     3977     TIP3     H1       HT       0.417000       1.00800           0
     29305 TIP3     3977     TIP3     H2       HT       0.417000       1.00800           0
     29306 TIP3     3978     TIP3     OH2      OT      -0.834000       15.9994           0
     29307 TIP3     3978     TIP3     H1       HT       0.417000       1.00800           0
     29308 TIP3     3978     TIP3     H2       HT       0.417000       1.00800           0
     29309 TIP3     3979     TIP3     OH2      OT      -0.834000       15.9994           0
     29310 TIP3     3979     TIP3     H1       HT       0.417000       1.00800           0
     29311 TIP3     3979     TIP3     H2       HT       0.417000       1.00800           0
     29312 TIP3     3980     TIP3     OH2      OT      -0.834000       15.9994           0
     29313 TIP3     3980     TIP3     H1       HT       0.417000       1.00800           0
     29314 TIP3     3980     TIP3     H2       HT       0.417000       1.00800           0
     29315 TIP3     3981     TIP3     OH2      OT      -0.834000       15.9994           0
     29316 TIP3     3981     TIP3     H1       HT       0.417000       1.00800           0
     29317 TIP3     3981     TIP3     H2       HT       0.417000       1.00800           0
     29318 TIP3     3982     TIP3     OH2      OT      -0.834000       15.9994           0
     29319 TIP3     3982     TIP3     H1       HT       0.417000       1.00800           0
     29320 TIP3     3982     TIP3     H2       HT       0.417000       1.00800           0
     29321 TIP3     3983     TIP3     OH2      OT      -0.834000       15.9994           0
     29322 TIP3     3983     TIP3     H1       HT       0.417000       1.00800           0
     29323 TIP3     3983     TIP3     H2       HT       0.417000       1.00800           0
     29324 TIP3     3984     TIP3     OH2      OT      -0.834000       15.9994           0
     29325 TIP3     3984     TIP3     H1       HT       0.417000       1.00800           0
     29326 TIP3     3984     TIP3     H2       HT       0.417000       1.00800           0
     29327 TIP3     3985     TIP3     OH2      OT      -0.834000       15.9994           0
     29328 TIP3     3985     TIP3     H1       HT       0.417000       1.00800           0
     29329 TIP3     3985     TIP3     H2       HT       0.417000       1.00800           0
     29330 TIP3     3986     TIP3     OH2      OT      -0.834000       15.9994           0
     29331 TIP3     3986     TIP3     H1       HT       0.417000       1.00800           0
     29332 TIP3     3986     TIP3     H2       HT       0.417000       1.00800           0
     29333 TIP3     3987     TIP3     OH2      OT      -0.834000       15.9994           0
     29334 TIP3     3987     TIP3     H1       HT       0.417000       1.00800           0
     29335 TIP3     3987     TIP3     H2       HT       0.417000       1.00800           0
     29336 TIP3     3988     TIP3     OH2      OT      -0.834000       15.9994           0
     29337 TIP3     3988     TIP3     H1       HT       0.417000       1.00800           0
     29338 TIP3     3988     TIP3     H2       HT       0.417000       1.00800           0
     29339 TIP3     3989     TIP3     OH2      OT      -0.834000       15.9994           0
     29340 TIP3     3989     TIP3     H1       HT       0.417000       1.00800           0
     29341 TIP3     3989     TIP3     H2       HT       0.417000       1.00800           0
     29342 TIP3     3990     TIP3     OH2      OT      -0.834000       15.9994           0
     29343 TIP3     3990     TIP3     H1       HT       0.417000       1.00800           0
     29344 TIP3     3990     TIP3     H2       HT       0.417000       1.00800           0
     29345 TIP3     3991     TIP3     OH2      OT      -0.834000       15.9994           0
     29346 TIP3     3991     TIP3     H1       HT       0.417000       1.00800           0
     29347 TIP3     3991     TIP3     H2       HT       0.417000       1.00800           0
     29348 TIP3     3992     TIP3     OH2      OT      -0.834000       15.9994           0
     29349 TIP3     3992     TIP3     H1       HT       0.417000       1.00800           0
     29350 TIP3     3992     TIP3     H2       HT       0.417000       1.00800           0
     29351 TIP3     3993     TIP3     OH2      OT      -0.834000       15.9994           0
     29352 TIP3     3993     TIP3     H1       HT       0.417000       1.00800           0
     29353 TIP3     3993     TIP3     H2       HT       0.417000       1.00800           0
     29354 TIP3     3994     TIP3     OH2      OT      -0.834000       15.9994           0
     29355 TIP3     3994     TIP3     H1       HT       0.417000       1.00800           0
     29356 TIP3     3994     TIP3     H2       HT       0.417000       1.00800           0
     29357 TIP3     3995     TIP3     OH2      OT      -0.834000       15.9994           0
     29358 TIP3     3995     TIP3     H1       HT       0.417000       1.00800           0
     29359 TIP3     3995     TIP3     H2       HT       0.417000       1.00800           0
     29360 TIP3     3996     TIP3     OH2      OT      -0.834000       15.9994           0
     29361 TIP3     3996     TIP3     H1       HT       0.417000       1.00800           0
     29362 TIP3     3996     TIP3     H2       HT       0.417000       1.00800           0
     29363 TIP3     3997     TIP3     OH2      OT      -0.834000       15.9994           0
     29364 TIP3     3997     TIP3     H1       HT       0.417000       1.00800           0
     29365 TIP3     3997     TIP3     H2       HT       0.417000       1.00800           0
     29366 TIP3     3998     TIP3     OH2      OT      -0.834000       15.9994           0
     29367 TIP3     3998     TIP3     H1       HT       0.417000       1.00800           0
     29368 TIP3     3998     TIP3     H2       HT       0.417000       1.00800           0
     29369 TIP3     3999     TIP3     OH2      OT      -0.834000       15.9994           0
     29370 TIP3     3999     TIP3     H1       HT       0.417000       1.00800           0
     29371 TIP3     3999     TIP3     H2       HT       0.417000       1.00800           0
     29372 TIP3     4000     TIP3     OH2      OT      -0.834000       15.9994           0
     29373 TIP3     4000     TIP3     H1       HT       0.417000       1.00800           0
     29374 TIP3     4000     TIP3     H2       HT       0.417000       1.00800           0
     29375 TIP3     4001     TIP3     OH2      OT      -0.834000       15.9994           0
     29376 TIP3     4001     TIP3     H1       HT       0.417000       1.00800           0
     29377 TIP3     4001     TIP3     H2       HT       0.417000       1.00800           0
     29378 TIP3     4002     TIP3     OH2      OT      -0.834000       15.9994           0
     29379 TIP3     4002     TIP3     H1       HT       0.417000       1.00800           0
     29380 TIP3     4002     TIP3     H2       HT       0.417000       1.00800           0
     29381 TIP3     4003     TIP3     OH2      OT      -0.834000       15.9994           0
     29382 TIP3     4003     TIP3     H1       HT       0.417000       1.00800           0
     29383 TIP3     4003     TIP3     H2       HT       0.417000       1.00800           0
     29384 TIP3     4004     TIP3     OH2      OT      -0.834000       15.9994           0
     29385 TIP3     4004     TIP3     H1       HT       0.417000       1.00800           0
     29386 TIP3     4004     TIP3     H2       HT       0.417000       1.00800           0
     29387 TIP3     4005     TIP3     OH2      OT      -0.834000       15.9994           0
     29388 TIP3     4005     TIP3     H1       HT       0.417000       1.00800           0
     29389 TIP3     4005     TIP3     H2       HT       0.417000       1.00800           0
     29390 TIP3     4006     TIP3     OH2      OT      -0.834000       15.9994           0
     29391 TIP3     4006     TIP3     H1       HT       0.417000       1.00800           0
     29392 TIP3     4006     TIP3     H2       HT       0.417000       1.00800           0
     29393 TIP3     4007     TIP3     OH2      OT      -0.834000       15.9994           0
     29394 TIP3     4007     TIP3     H1       HT       0.417000       1.00800           0
     29395 TIP3     4007     TIP3     H2       HT       0.417000       1.00800           0
     29396 TIP3     4008     TIP3     OH2      OT      -0.834000       15.9994           0
     29397 TIP3     4008     TIP3     H1       HT       0.417000       1.00800           0
     29398 TIP3     4008     TIP3     H2       HT       0.417000       1.00800           0
     29399 TIP3     4009     TIP3     OH2      OT      -0.834000       15.9994           0
     29400 TIP3     4009     TIP3     H1       HT       0.417000       1.00800           0
     29401 TIP3     4009     TIP3     H2       HT       0.417000       1.00800           0
     29402 TIP3     4010     TIP3     OH2      OT      -0.834000       15.9994           0
     29403 TIP3     4010     TIP3     H1       HT       0.417000       1.00800           0
     29404 TIP3     4010     TIP3     H2       HT       0.417000       1.00800           0
     29405 TIP3     4011     TIP3     OH2      OT      -0.834000       15.9994           0
     29406 TIP3     4011     TIP3     H1       HT       0.417000       1.00800           0
     29407 TIP3     4011     TIP3     H2       HT       0.417000       1.00800           0
     29408 TIP3     4012     TIP3     OH2      OT      -0.834000       15.9994           0
     29409 TIP3     4012     TIP3     H1       HT       0.417000       1.00800           0
     29410 TIP3     4012     TIP3     H2       HT       0.417000       1.00800           0
     29411 TIP3     4013     TIP3     OH2      OT      -0.834000       15.9994           0
     29412 TIP3     4013     TIP3     H1       HT       0.417000       1.00800           0
     29413 TIP3     4013     TIP3     H2       HT       0.417000       1.00800           0
     29414 TIP3     4014     TIP3     OH2      OT      -0.834000       15.9994           0
     29415 TIP3     4014     TIP3     H1       HT       0.417000       1.00800           0
     29416 TIP3     4014     TIP3     H2       HT       0.417000       1.00800           0
     29417 TIP3     4015     TIP3     OH2      OT      -0.834000       15.9994           0
     29418 TIP3     4015     TIP3     H1       HT       0.417000       1.00800           0
     29419 TIP3     4015     TIP3     H2       HT       0.417000       1.00800           0
     29420 TIP3     4016     TIP3     OH2      OT      -0.834000       15.9994           0
     29421 TIP3     4016     TIP3     H1       HT       0.417000       1.00800           0
     29422 TIP3     4016     TIP3     H2       HT       0.417000       1.00800           0
     29423 TIP3     4017     TIP3     OH2      OT      -0.834000       15.9994           0
     29424 TIP3     4017     TIP3     H1       HT       0.417000       1.00800           0
     29425 TIP3     4017     TIP3     H2       HT       0.417000       1.00800           0
     29426 TIP3     4018     TIP3     OH2      OT      -0.834000       15.9994           0
     29427 TIP3     4018     TIP3     H1       HT       0.417000       1.00800           0
     29428 TIP3     4018     TIP3     H2       HT       0.417000       1.00800           0
     29429 TIP3     4019     TIP3     OH2      OT      -0.834000       15.9994           0
     29430 TIP3     4019     TIP3     H1       HT       0.417000       1.00800           0
     29431 TIP3     4019     TIP3     H2       HT       0.417000       1.00800           0
     29432 TIP3     4020     TIP3     OH2      OT      -0.834000       15.9994           0
     29433 TIP3     4020     TIP3     H1       HT       0.417000       1.00800           0
     29434 TIP3     4020     TIP3     H2       HT       0.417000       1.00800           0
     29435 TIP3     4021     TIP3     OH2      OT      -0.834000       15.9994           0
     29436 TIP3     4021     TIP3     H1       HT       0.417000       1.00800           0
     29437 TIP3     4021     TIP3     H2       HT       0.417000       1.00800           0
     29438 TIP3     4022     TIP3     OH2      OT      -0.834000       15.9994           0
     29439 TIP3     4022     TIP3     H1       HT       0.417000       1.00800           0
     29440 TIP3     4022     TIP3     H2       HT       0.417000       1.00800           0
     29441 TIP3     4023     TIP3     OH2      OT      -0.834000       15.9994           0
     29442 TIP3     4023     TIP3     H1       HT       0.417000       1.00800           0
     29443 TIP3     4023     TIP3     H2       HT       0.417000       1.00800           0
     29444 TIP3     4024     TIP3     OH2      OT      -0.834000       15.9994           0
     29445 TIP3     4024     TIP3     H1       HT       0.417000       1.00800           0
     29446 TIP3     4024     TIP3     H2       HT       0.417000       1.00800           0
     29447 TIP3     4025     TIP3     OH2      OT      -0.834000       15.9994           0
     29448 TIP3     4025     TIP3     H1       HT       0.417000       1.00800           0
     29449 TIP3     4025     TIP3     H2       HT       0.417000       1.00800           0
     29450 TIP3     4026     TIP3     OH2      OT      -0.834000       15.9994           0
     29451 TIP3     4026     TIP3     H1       HT       0.417000       1.00800           0
     29452 TIP3     4026     TIP3     H2       HT       0.417000       1.00800           0
     29453 TIP3     4027     TIP3     OH2      OT      -0.834000       15.9994           0
     29454 TIP3     4027     TIP3     H1       HT       0.417000       1.00800           0
     29455 TIP3     4027     TIP3     H2       HT       0.417000       1.00800           0
     29456 TIP3     4028     TIP3     OH2      OT      -0.834000       15.9994           0
     29457 TIP3     4028     TIP3     H1       HT       0.417000       1.00800           0
     29458 TIP3     4028     TIP3     H2       HT       0.417000       1.00800           0
     29459 TIP3     4029     TIP3     OH2      OT      -0.834000       15.9994           0
     29460 TIP3     4029     TIP3     H1       HT       0.417000       1.00800           0
     29461 TIP3     4029     TIP3     H2       HT       0.417000       1.00800           0
     29462 TIP3     4030     TIP3     OH2      OT      -0.834000       15.9994           0
     29463 TIP3     4030     TIP3     H1       HT       0.417000       1.00800           0
     29464 TIP3     4030     TIP3     H2       HT       0.417000       1.00800           0
     29465 TIP3     4031     TIP3     OH2      OT      -0.834000       15.9994           0
     29466 TIP3     4031     TIP3     H1       HT       0.417000       1.00800           0
     29467 TIP3     4031     TIP3     H2       HT       0.417000       1.00800           0
     29468 TIP3     4032     TIP3     OH2      OT      -0.834000       15.9994           0
     29469 TIP3     4032     TIP3     H1       HT       0.417000       1.00800           0
     29470 TIP3     4032     TIP3     H2       HT       0.417000       1.00800           0
     29471 TIP3     4033     TIP3     OH2      OT      -0.834000       15.9994           0
     29472 TIP3     4033     TIP3     H1       HT       0.417000       1.00800           0
     29473 TIP3     4033     TIP3     H2       HT       0.417000       1.00800           0
     29474 TIP3     4034     TIP3     OH2      OT      -0.834000       15.9994           0
     29475 TIP3     4034     TIP3     H1       HT       0.417000       1.00800           0
     29476 TIP3     4034     TIP3     H2       HT       0.417000       1.00800           0
     29477 TIP3     4035     TIP3     OH2      OT      -0.834000       15.9994           0
     29478 TIP3     4035     TIP3     H1       HT       0.417000       1.00800           0
     29479 TIP3     4035     TIP3     H2       HT       0.417000       1.00800           0
     29480 TIP3     4036     TIP3     OH2      OT      -0.834000       15.9994           0
     29481 TIP3     4036     TIP3     H1       HT       0.417000       1.00800           0
     29482 TIP3     4036     TIP3     H2       HT       0.417000       1.00800           0
     29483 TIP3     4037     TIP3     OH2      OT      -0.834000       15.9994           0
     29484 TIP3     4037     TIP3     H1       HT       0.417000       1.00800           0
     29485 TIP3     4037     TIP3     H2       HT       0.417000       1.00800           0
     29486 TIP3     4038     TIP3     OH2      OT      -0.834000       15.9994           0
     29487 TIP3     4038     TIP3     H1       HT       0.417000       1.00800           0
     29488 TIP3     4038     TIP3     H2       HT       0.417000       1.00800           0
     29489 TIP3     4039     TIP3     OH2      OT      -0.834000       15.9994           0
     29490 TIP3     4039     TIP3     H1       HT       0.417000       1.00800           0
     29491 TIP3     4039     TIP3     H2       HT       0.417000       1.00800           0
     29492 TIP3     4040     TIP3     OH2      OT      -0.834000       15.9994           0
     29493 TIP3     4040     TIP3     H1       HT       0.417000       1.00800           0
     29494 TIP3     4040     TIP3     H2       HT       0.417000       1.00800           0
     29495 TIP3     4041     TIP3     OH2      OT      -0.834000       15.9994           0
     29496 TIP3     4041     TIP3     H1       HT       0.417000       1.00800           0
     29497 TIP3     4041     TIP3     H2       HT       0.417000       1.00800           0
     29498 TIP3     4042     TIP3     OH2      OT      -0.834000       15.9994           0
     29499 TIP3     4042     TIP3     H1       HT       0.417000       1.00800           0
     29500 TIP3     4042     TIP3     H2       HT       0.417000       1.00800           0
     29501 TIP3     4043     TIP3     OH2      OT      -0.834000       15.9994           0
     29502 TIP3     4043     TIP3     H1       HT       0.417000       1.00800           0
     29503 TIP3     4043     TIP3     H2       HT       0.417000       1.00800           0
     29504 TIP3     4044     TIP3     OH2      OT      -0.834000       15.9994           0
     29505 TIP3     4044     TIP3     H1       HT       0.417000       1.00800           0
     29506 TIP3     4044     TIP3     H2       HT       0.417000       1.00800           0
     29507 TIP3     4045     TIP3     OH2      OT      -0.834000       15.9994           0
     29508 TIP3     4045     TIP3     H1       HT       0.417000       1.00800           0
     29509 TIP3     4045     TIP3     H2       HT       0.417000       1.00800           0
     29510 TIP3     4046     TIP3     OH2      OT      -0.834000       15.9994           0
     29511 TIP3     4046     TIP3     H1       HT       0.417000       1.00800           0
     29512 TIP3     4046     TIP3     H2       HT       0.417000       1.00800           0
     29513 TIP3     4047     TIP3     OH2      OT      -0.834000       15.9994           0
     29514 TIP3     4047     TIP3     H1       HT       0.417000       1.00800           0
     29515 TIP3     4047     TIP3     H2       HT       0.417000       1.00800           0
     29516 TIP3     4048     TIP3     OH2      OT      -0.834000       15.9994           0
     29517 TIP3     4048     TIP3     H1       HT       0.417000       1.00800           0
     29518 TIP3     4048     TIP3     H2       HT       0.417000       1.00800           0
     29519 TIP3     4049     TIP3     OH2      OT      -0.834000       15.9994           0
     29520 TIP3     4049     TIP3     H1       HT       0.417000       1.00800           0
     29521 TIP3     4049     TIP3     H2       HT       0.417000       1.00800           0
     29522 TIP3     4050     TIP3     OH2      OT      -0.834000       15.9994           0
     29523 TIP3     4050     TIP3     H1       HT       0.417000       1.00800           0
     29524 TIP3     4050     TIP3     H2       HT       0.417000       1.00800           0
     29525 TIP3     4051     TIP3     OH2      OT      -0.834000       15.9994           0
     29526 TIP3     4051     TIP3     H1       HT       0.417000       1.00800           0
     29527 TIP3     4051     TIP3     H2       HT       0.417000       1.00800           0
     29528 TIP3     4052     TIP3     OH2      OT      -0.834000       15.9994           0
     29529 TIP3     4052     TIP3     H1       HT       0.417000       1.00800           0
     29530 TIP3     4052     TIP3     H2       HT       0.417000       1.00800           0
     29531 TIP3     4053     TIP3     OH2      OT      -0.834000       15.9994           0
     29532 TIP3     4053     TIP3     H1       HT       0.417000       1.00800           0
     29533 TIP3     4053     TIP3     H2       HT       0.417000       1.00800           0
     29534 TIP3     4054     TIP3     OH2      OT      -0.834000       15.9994           0
     29535 TIP3     4054     TIP3     H1       HT       0.417000       1.00800           0
     29536 TIP3     4054     TIP3     H2       HT       0.417000       1.00800           0
     29537 TIP3     4055     TIP3     OH2      OT      -0.834000       15.9994           0
     29538 TIP3     4055     TIP3     H1       HT       0.417000       1.00800           0
     29539 TIP3     4055     TIP3     H2       HT       0.417000       1.00800           0
     29540 TIP3     4056     TIP3     OH2      OT      -0.834000       15.9994           0
     29541 TIP3     4056     TIP3     H1       HT       0.417000       1.00800           0
     29542 TIP3     4056     TIP3     H2       HT       0.417000       1.00800           0
     29543 TIP3     4057     TIP3     OH2      OT      -0.834000       15.9994           0
     29544 TIP3     4057     TIP3     H1       HT       0.417000       1.00800           0
     29545 TIP3     4057     TIP3     H2       HT       0.417000       1.00800           0
     29546 TIP3     4058     TIP3     OH2      OT      -0.834000       15.9994           0
     29547 TIP3     4058     TIP3     H1       HT       0.417000       1.00800           0
     29548 TIP3     4058     TIP3     H2       HT       0.417000       1.00800           0
     29549 TIP3     4059     TIP3     OH2      OT      -0.834000       15.9994           0
     29550 TIP3     4059     TIP3     H1       HT       0.417000       1.00800           0
     29551 TIP3     4059     TIP3     H2       HT       0.417000       1.00800           0
     29552 TIP3     4060     TIP3     OH2      OT      -0.834000       15.9994           0
     29553 TIP3     4060     TIP3     H1       HT       0.417000       1.00800           0
     29554 TIP3     4060     TIP3     H2       HT       0.417000       1.00800           0
     29555 TIP3     4061     TIP3     OH2      OT      -0.834000       15.9994           0
     29556 TIP3     4061     TIP3     H1       HT       0.417000       1.00800           0
     29557 TIP3     4061     TIP3     H2       HT       0.417000       1.00800           0
     29558 TIP3     4062     TIP3     OH2      OT      -0.834000       15.9994           0
     29559 TIP3     4062     TIP3     H1       HT       0.417000       1.00800           0
     29560 TIP3     4062     TIP3     H2       HT       0.417000       1.00800           0
     29561 TIP3     4063     TIP3     OH2      OT      -0.834000       15.9994           0
     29562 TIP3     4063     TIP3     H1       HT       0.417000       1.00800           0
     29563 TIP3     4063     TIP3     H2       HT       0.417000       1.00800           0
     29564 TIP3     4064     TIP3     OH2      OT      -0.834000       15.9994           0
     29565 TIP3     4064     TIP3     H1       HT       0.417000       1.00800           0
     29566 TIP3     4064     TIP3     H2       HT       0.417000       1.00800           0
     29567 TIP3     4065     TIP3     OH2      OT      -0.834000       15.9994           0
     29568 TIP3     4065     TIP3     H1       HT       0.417000       1.00800           0
     29569 TIP3     4065     TIP3     H2       HT       0.417000       1.00800           0
     29570 TIP3     4066     TIP3     OH2      OT      -0.834000       15.9994           0
     29571 TIP3     4066     TIP3     H1       HT       0.417000       1.00800           0
     29572 TIP3     4066     TIP3     H2       HT       0.417000       1.00800           0
     29573 TIP3     4067     TIP3     OH2      OT      -0.834000       15.9994           0
     29574 TIP3     4067     TIP3     H1       HT       0.417000       1.00800           0
     29575 TIP3     4067     TIP3     H2       HT       0.417000       1.00800           0
     29576 TIP3     4068     TIP3     OH2      OT      -0.834000       15.9994           0
     29577 TIP3     4068     TIP3     H1       HT       0.417000       1.00800           0
     29578 TIP3     4068     TIP3     H2       HT       0.417000       1.00800           0
     29579 TIP3     4069     TIP3     OH2      OT      -0.834000       15.9994           0
     29580 TIP3     4069     TIP3     H1       HT       0.417000       1.00800           0
     29581 TIP3     4069     TIP3     H2       HT       0.417000       1.00800           0
     29582 TIP3     4070     TIP3     OH2      OT      -0.834000       15.9994           0
     29583 TIP3     4070     TIP3     H1       HT       0.417000       1.00800           0
     29584 TIP3     4070     TIP3     H2       HT       0.417000       1.00800           0
     29585 TIP3     4071     TIP3     OH2      OT      -0.834000       15.9994           0
     29586 TIP3     4071     TIP3     H1       HT       0.417000       1.00800           0
     29587 TIP3     4071     TIP3     H2       HT       0.417000       1.00800           0
     29588 TIP3     4072     TIP3     OH2      OT      -0.834000       15.9994           0
     29589 TIP3     4072     TIP3     H1       HT       0.417000       1.00800           0
     29590 TIP3     4072     TIP3     H2       HT       0.417000       1.00800           0
     29591 TIP3     4073     TIP3     OH2      OT      -0.834000       15.9994           0
     29592 TIP3     4073     TIP3     H1       HT       0.417000       1.00800           0
     29593 TIP3     4073     TIP3     H2       HT       0.417000       1.00800           0
     29594 TIP3     4074     TIP3     OH2      OT      -0.834000       15.9994           0
     29595 TIP3     4074     TIP3     H1       HT       0.417000       1.00800           0
     29596 TIP3     4074     TIP3     H2       HT       0.417000       1.00800           0
     29597 TIP3     4075     TIP3     OH2      OT      -0.834000       15.9994           0
     29598 TIP3     4075     TIP3     H1       HT       0.417000       1.00800           0
     29599 TIP3     4075     TIP3     H2       HT       0.417000       1.00800           0
     29600 TIP3     4076     TIP3     OH2      OT      -0.834000       15.9994           0
     29601 TIP3     4076     TIP3     H1       HT       0.417000       1.00800           0
     29602 TIP3     4076     TIP3     H2       HT       0.417000       1.00800           0
     29603 TIP3     4077     TIP3     OH2      OT      -0.834000       15.9994           0
     29604 TIP3     4077     TIP3     H1       HT       0.417000       1.00800           0
     29605 TIP3     4077     TIP3     H2       HT       0.417000       1.00800           0
     29606 TIP3     4078     TIP3     OH2      OT      -0.834000       15.9994           0
     29607 TIP3     4078     TIP3     H1       HT       0.417000       1.00800           0
     29608 TIP3     4078     TIP3     H2       HT       0.417000       1.00800           0
     29609 TIP3     4079     TIP3     OH2      OT      -0.834000       15.9994           0
     29610 TIP3     4079     TIP3     H1       HT       0.417000       1.00800           0
     29611 TIP3     4079     TIP3     H2       HT       0.417000       1.00800           0
     29612 TIP3     4080     TIP3     OH2      OT      -0.834000       15.9994           0
     29613 TIP3     4080     TIP3     H1       HT       0.417000       1.00800           0
     29614 TIP3     4080     TIP3     H2       HT       0.417000       1.00800           0
     29615 TIP3     4081     TIP3     OH2      OT      -0.834000       15.9994           0
     29616 TIP3     4081     TIP3     H1       HT       0.417000       1.00800           0
     29617 TIP3     4081     TIP3     H2       HT       0.417000       1.00800           0
     29618 TIP3     4082     TIP3     OH2      OT      -0.834000       15.9994           0
     29619 TIP3     4082     TIP3     H1       HT       0.417000       1.00800           0
     29620 TIP3     4082     TIP3     H2       HT       0.417000       1.00800           0
     29621 TIP3     4083     TIP3     OH2      OT      -0.834000       15.9994           0
     29622 TIP3     4083     TIP3     H1       HT       0.417000       1.00800           0
     29623 TIP3     4083     TIP3     H2       HT       0.417000       1.00800           0
     29624 TIP3     4084     TIP3     OH2      OT      -0.834000       15.9994           0
     29625 TIP3     4084     TIP3     H1       HT       0.417000       1.00800           0
     29626 TIP3     4084     TIP3     H2       HT       0.417000       1.00800           0
     29627 TIP3     4085     TIP3     OH2      OT      -0.834000       15.9994           0
     29628 TIP3     4085     TIP3     H1       HT       0.417000       1.00800           0
     29629 TIP3     4085     TIP3     H2       HT       0.417000       1.00800           0
     29630 TIP3     4086     TIP3     OH2      OT      -0.834000       15.9994           0
     29631 TIP3     4086     TIP3     H1       HT       0.417000       1.00800           0
     29632 TIP3     4086     TIP3     H2       HT       0.417000       1.00800           0
     29633 TIP3     4087     TIP3     OH2      OT      -0.834000       15.9994           0
     29634 TIP3     4087     TIP3     H1       HT       0.417000       1.00800           0
     29635 TIP3     4087     TIP3     H2       HT       0.417000       1.00800           0
     29636 TIP3     4088     TIP3     OH2      OT      -0.834000       15.9994           0
     29637 TIP3     4088     TIP3     H1       HT       0.417000       1.00800           0
     29638 TIP3     4088     TIP3     H2       HT       0.417000       1.00800           0
     29639 TIP3     4089     TIP3     OH2      OT      -0.834000       15.9994           0
     29640 TIP3     4089     TIP3     H1       HT       0.417000       1.00800           0
     29641 TIP3     4089     TIP3     H2       HT       0.417000       1.00800           0
     29642 TIP3     4090     TIP3     OH2      OT      -0.834000       15.9994           0
     29643 TIP3     4090     TIP3     H1       HT       0.417000       1.00800           0
     29644 TIP3     4090     TIP3     H2       HT       0.417000       1.00800           0
     29645 TIP3     4091     TIP3     OH2      OT      -0.834000       15.9994           0
     29646 TIP3     4091     TIP3     H1       HT       0.417000       1.00800           0
     29647 TIP3     4091     TIP3     H2       HT       0.417000       1.00800           0
     29648 TIP3     4092     TIP3     OH2      OT      -0.834000       15.9994           0
     29649 TIP3     4092     TIP3     H1       HT       0.417000       1.00800           0
     29650 TIP3     4092     TIP3     H2       HT       0.417000       1.00800           0
     29651 TIP3     4093     TIP3     OH2      OT      -0.834000       15.9994           0
     29652 TIP3     4093     TIP3     H1       HT       0.417000       1.00800           0
     29653 TIP3     4093     TIP3     H2       HT       0.417000       1.00800           0
     29654 TIP3     4094     TIP3     OH2      OT      -0.834000       15.9994           0
     29655 TIP3     4094     TIP3     H1       HT       0.417000       1.00800           0
     29656 TIP3     4094     TIP3     H2       HT       0.417000       1.00800           0
     29657 TIP3     4095     TIP3     OH2      OT      -0.834000       15.9994           0
     29658 TIP3     4095     TIP3     H1       HT       0.417000       1.00800           0
     29659 TIP3     4095     TIP3     H2       HT       0.417000       1.00800           0
     29660 TIP3     4096     TIP3     OH2      OT      -0.834000       15.9994           0
     29661 TIP3     4096     TIP3     H1       HT       0.417000       1.00800           0
     29662 TIP3     4096     TIP3     H2       HT       0.417000       1.00800           0
     29663 TIP3     4097     TIP3     OH2      OT      -0.834000       15.9994           0
     29664 TIP3     4097     TIP3     H1       HT       0.417000       1.00800           0
     29665 TIP3     4097     TIP3     H2       HT       0.417000       1.00800           0
     29666 TIP3     4098     TIP3     OH2      OT      -0.834000       15.9994           0
     29667 TIP3     4098     TIP3     H1       HT       0.417000       1.00800           0
     29668 TIP3     4098     TIP3     H2       HT       0.417000       1.00800           0
     29669 TIP3     4099     TIP3     OH2      OT      -0.834000       15.9994           0
     29670 TIP3     4099     TIP3     H1       HT       0.417000       1.00800           0
     29671 TIP3     4099     TIP3     H2       HT       0.417000       1.00800           0
     29672 TIP3     4100     TIP3     OH2      OT      -0.834000       15.9994           0
     29673 TIP3     4100     TIP3     H1       HT       0.417000       1.00800           0
     29674 TIP3     4100     TIP3     H2       HT       0.417000       1.00800           0
     29675 TIP3     4101     TIP3     OH2      OT      -0.834000       15.9994           0
     29676 TIP3     4101     TIP3     H1       HT       0.417000       1.00800           0
     29677 TIP3     4101     TIP3     H2       HT       0.417000       1.00800           0
     29678 TIP3     4102     TIP3     OH2      OT      -0.834000       15.9994           0
     29679 TIP3     4102     TIP3     H1       HT       0.417000       1.00800           0
     29680 TIP3     4102     TIP3     H2       HT       0.417000       1.00800           0
     29681 TIP3     4103     TIP3     OH2      OT      -0.834000       15.9994           0
     29682 TIP3     4103     TIP3     H1       HT       0.417000       1.00800           0
     29683 TIP3     4103     TIP3     H2       HT       0.417000       1.00800           0
     29684 TIP3     4104     TIP3     OH2      OT      -0.834000       15.9994           0
     29685 TIP3     4104     TIP3     H1       HT       0.417000       1.00800           0
     29686 TIP3     4104     TIP3     H2       HT       0.417000       1.00800           0
     29687 TIP3     4105     TIP3     OH2      OT      -0.834000       15.9994           0
     29688 TIP3     4105     TIP3     H1       HT       0.417000       1.00800           0
     29689 TIP3     4105     TIP3     H2       HT       0.417000       1.00800           0
     29690 TIP3     4106     TIP3     OH2      OT      -0.834000       15.9994           0
     29691 TIP3     4106     TIP3     H1       HT       0.417000       1.00800           0
     29692 TIP3     4106     TIP3     H2       HT       0.417000       1.00800           0
     29693 TIP3     4107     TIP3     OH2      OT      -0.834000       15.9994           0
     29694 TIP3     4107     TIP3     H1       HT       0.417000       1.00800           0
     29695 TIP3     4107     TIP3     H2       HT       0.417000       1.00800           0
     29696 TIP3     4108     TIP3     OH2      OT      -0.834000       15.9994           0
     29697 TIP3     4108     TIP3     H1       HT       0.417000       1.00800           0
     29698 TIP3     4108     TIP3     H2       HT       0.417000       1.00800           0
     29699 TIP3     4109     TIP3     OH2      OT      -0.834000       15.9994           0
     29700 TIP3     4109     TIP3     H1       HT       0.417000       1.00800           0
     29701 TIP3     4109     TIP3     H2       HT       0.417000       1.00800           0
     29702 TIP3     4110     TIP3     OH2      OT      -0.834000       15.9994           0
     29703 TIP3     4110     TIP3     H1       HT       0.417000       1.00800           0
     29704 TIP3     4110     TIP3     H2       HT       0.417000       1.00800           0
     29705 TIP3     4111     TIP3     OH2      OT      -0.834000       15.9994           0
     29706 TIP3     4111     TIP3     H1       HT       0.417000       1.00800           0
     29707 TIP3     4111     TIP3     H2       HT       0.417000       1.00800           0
     29708 TIP3     4112     TIP3     OH2      OT      -0.834000       15.9994           0
     29709 TIP3     4112     TIP3     H1       HT       0.417000       1.00800           0
     29710 TIP3     4112     TIP3     H2       HT       0.417000       1.00800           0
     29711 TIP3     4113     TIP3     OH2      OT      -0.834000       15.9994           0
     29712 TIP3     4113     TIP3     H1       HT       0.417000       1.00800           0
     29713 TIP3     4113     TIP3     H2       HT       0.417000       1.00800           0
     29714 TIP3     4114     TIP3     OH2      OT      -0.834000       15.9994           0
     29715 TIP3     4114     TIP3     H1       HT       0.417000       1.00800           0
     29716 TIP3     4114     TIP3     H2       HT       0.417000       1.00800           0
     29717 TIP3     4115     TIP3     OH2      OT      -0.834000       15.9994           0
     29718 TIP3     4115     TIP3     H1       HT       0.417000       1.00800           0
     29719 TIP3     4115     TIP3     H2       HT       0.417000       1.00800           0
     29720 TIP3     4116     TIP3     OH2      OT      -0.834000       15.9994           0
     29721 TIP3     4116     TIP3     H1       HT       0.417000       1.00800           0
     29722 TIP3     4116     TIP3     H2       HT       0.417000       1.00800           0
     29723 TIP3     4117     TIP3     OH2      OT      -0.834000       15.9994           0
     29724 TIP3     4117     TIP3     H1       HT       0.417000       1.00800           0
     29725 TIP3     4117     TIP3     H2       HT       0.417000       1.00800           0
     29726 TIP3     4118     TIP3     OH2      OT      -0.834000       15.9994           0
     29727 TIP3     4118     TIP3     H1       HT       0.417000       1.00800           0
     29728 TIP3     4118     TIP3     H2       HT       0.417000       1.00800           0
     29729 TIP3     4119     TIP3     OH2      OT      -0.834000       15.9994           0
     29730 TIP3     4119     TIP3     H1       HT       0.417000       1.00800           0
     29731 TIP3     4119     TIP3     H2       HT       0.417000       1.00800           0
     29732 TIP3     4120     TIP3     OH2      OT      -0.834000       15.9994           0
     29733 TIP3     4120     TIP3     H1       HT       0.417000       1.00800           0
     29734 TIP3     4120     TIP3     H2       HT       0.417000       1.00800           0
     29735 TIP3     4121     TIP3     OH2      OT      -0.834000       15.9994           0
     29736 TIP3     4121     TIP3     H1       HT       0.417000       1.00800           0
     29737 TIP3     4121     TIP3     H2       HT       0.417000       1.00800           0
     29738 TIP3     4122     TIP3     OH2      OT      -0.834000       15.9994           0
     29739 TIP3     4122     TIP3     H1       HT       0.417000       1.00800           0
     29740 TIP3     4122     TIP3     H2       HT       0.417000       1.00800           0
     29741 TIP3     4123     TIP3     OH2      OT      -0.834000       15.9994           0
     29742 TIP3     4123     TIP3     H1       HT       0.417000       1.00800           0
     29743 TIP3     4123     TIP3     H2       HT       0.417000       1.00800           0
     29744 TIP3     4124     TIP3     OH2      OT      -0.834000       15.9994           0
     29745 TIP3     4124     TIP3     H1       HT       0.417000       1.00800           0
     29746 TIP3     4124     TIP3     H2       HT       0.417000       1.00800           0
     29747 TIP3     4125     TIP3     OH2      OT      -0.834000       15.9994           0
     29748 TIP3     4125     TIP3     H1       HT       0.417000       1.00800           0
     29749 TIP3     4125     TIP3     H2       HT       0.417000       1.00800           0
     29750 TIP3     4126     TIP3     OH2      OT      -0.834000       15.9994           0
     29751 TIP3     4126     TIP3     H1       HT       0.417000       1.00800           0
     29752 TIP3     4126     TIP3     H2       HT       0.417000       1.00800           0
     29753 TIP3     4127     TIP3     OH2      OT      -0.834000       15.9994           0
     29754 TIP3     4127     TIP3     H1       HT       0.417000       1.00800           0
     29755 TIP3     4127     TIP3     H2       HT       0.417000       1.00800           0
     29756 TIP3     4128     TIP3     OH2      OT      -0.834000       15.9994           0
     29757 TIP3     4128     TIP3     H1       HT       0.417000       1.00800           0
     29758 TIP3     4128     TIP3     H2       HT       0.417000       1.00800           0
     29759 TIP3     4129     TIP3     OH2      OT      -0.834000       15.9994           0
     29760 TIP3     4129     TIP3     H1       HT       0.417000       1.00800           0
     29761 TIP3     4129     TIP3     H2       HT       0.417000       1.00800           0
     29762 TIP3     4130     TIP3     OH2      OT      -0.834000       15.9994           0
     29763 TIP3     4130     TIP3     H1       HT       0.417000       1.00800           0
     29764 TIP3     4130     TIP3     H2       HT       0.417000       1.00800           0
     29765 TIP3     4131     TIP3     OH2      OT      -0.834000       15.9994           0
     29766 TIP3     4131     TIP3     H1       HT       0.417000       1.00800           0
     29767 TIP3     4131     TIP3     H2       HT       0.417000       1.00800           0
     29768 TIP3     4132     TIP3     OH2      OT      -0.834000       15.9994           0
     29769 TIP3     4132     TIP3     H1       HT       0.417000       1.00800           0
     29770 TIP3     4132     TIP3     H2       HT       0.417000       1.00800           0
     29771 TIP3     4133     TIP3     OH2      OT      -0.834000       15.9994           0
     29772 TIP3     4133     TIP3     H1       HT       0.417000       1.00800           0
     29773 TIP3     4133     TIP3     H2       HT       0.417000       1.00800           0
     29774 TIP3     4134     TIP3     OH2      OT      -0.834000       15.9994           0
     29775 TIP3     4134     TIP3     H1       HT       0.417000       1.00800           0
     29776 TIP3     4134     TIP3     H2       HT       0.417000       1.00800           0
     29777 TIP3     4135     TIP3     OH2      OT      -0.834000       15.9994           0
     29778 TIP3     4135     TIP3     H1       HT       0.417000       1.00800           0
     29779 TIP3     4135     TIP3     H2       HT       0.417000       1.00800           0
     29780 TIP3     4136     TIP3     OH2      OT      -0.834000       15.9994           0
     29781 TIP3     4136     TIP3     H1       HT       0.417000       1.00800           0
     29782 TIP3     4136     TIP3     H2       HT       0.417000       1.00800           0
     29783 TIP3     4137     TIP3     OH2      OT      -0.834000       15.9994           0
     29784 TIP3     4137     TIP3     H1       HT       0.417000       1.00800           0
     29785 TIP3     4137     TIP3     H2       HT       0.417000       1.00800           0
     29786 TIP3     4138     TIP3     OH2      OT      -0.834000       15.9994           0
     29787 TIP3     4138     TIP3     H1       HT       0.417000       1.00800           0
     29788 TIP3     4138     TIP3     H2       HT       0.417000       1.00800           0
     29789 TIP3     4139     TIP3     OH2      OT      -0.834000       15.9994           0
     29790 TIP3     4139     TIP3     H1       HT       0.417000       1.00800           0
     29791 TIP3     4139     TIP3     H2       HT       0.417000       1.00800           0
     29792 TIP3     4140     TIP3     OH2      OT      -0.834000       15.9994           0
     29793 TIP3     4140     TIP3     H1       HT       0.417000       1.00800           0
     29794 TIP3     4140     TIP3     H2       HT       0.417000       1.00800           0
     29795 TIP3     4141     TIP3     OH2      OT      -0.834000       15.9994           0
     29796 TIP3     4141     TIP3     H1       HT       0.417000       1.00800           0
     29797 TIP3     4141     TIP3     H2       HT       0.417000       1.00800           0
     29798 TIP3     4142     TIP3     OH2      OT      -0.834000       15.9994           0
     29799 TIP3     4142     TIP3     H1       HT       0.417000       1.00800           0
     29800 TIP3     4142     TIP3     H2       HT       0.417000       1.00800           0
     29801 TIP3     4143     TIP3     OH2      OT      -0.834000       15.9994           0
     29802 TIP3     4143     TIP3     H1       HT       0.417000       1.00800           0
     29803 TIP3     4143     TIP3     H2       HT       0.417000       1.00800           0
     29804 TIP3     4144     TIP3     OH2      OT      -0.834000       15.9994           0
     29805 TIP3     4144     TIP3     H1       HT       0.417000       1.00800           0
     29806 TIP3     4144     TIP3     H2       HT       0.417000       1.00800           0
     29807 TIP3     4145     TIP3     OH2      OT      -0.834000       15.9994           0
     29808 TIP3     4145     TIP3     H1       HT       0.417000       1.00800           0
     29809 TIP3     4145     TIP3     H2       HT       0.417000       1.00800           0
     29810 TIP3     4146     TIP3     OH2      OT      -0.834000       15.9994           0
     29811 TIP3     4146     TIP3     H1       HT       0.417000       1.00800           0
     29812 TIP3     4146     TIP3     H2       HT       0.417000       1.00800           0
     29813 TIP3     4147     TIP3     OH2      OT      -0.834000       15.9994           0
     29814 TIP3     4147     TIP3     H1       HT       0.417000       1.00800           0
     29815 TIP3     4147     TIP3     H2       HT       0.417000       1.00800           0
     29816 TIP3     4148     TIP3     OH2      OT      -0.834000       15.9994           0
     29817 TIP3     4148     TIP3     H1       HT       0.417000       1.00800           0
     29818 TIP3     4148     TIP3     H2       HT       0.417000       1.00800           0
     29819 TIP3     4149     TIP3     OH2      OT      -0.834000       15.9994           0
     29820 TIP3     4149     TIP3     H1       HT       0.417000       1.00800           0
     29821 TIP3     4149     TIP3     H2       HT       0.417000       1.00800           0
     29822 TIP3     4150     TIP3     OH2      OT      -0.834000       15.9994           0
     29823 TIP3     4150     TIP3     H1       HT       0.417000       1.00800           0
     29824 TIP3     4150     TIP3     H2       HT       0.417000       1.00800           0
     29825 TIP3     4151     TIP3     OH2      OT      -0.834000       15.9994           0
     29826 TIP3     4151     TIP3     H1       HT       0.417000       1.00800           0
     29827 TIP3     4151     TIP3     H2       HT       0.417000       1.00800           0
     29828 TIP3     4152     TIP3     OH2      OT      -0.834000       15.9994           0
     29829 TIP3     4152     TIP3     H1       HT       0.417000       1.00800           0
     29830 TIP3     4152     TIP3     H2       HT       0.417000       1.00800           0
     29831 TIP3     4153     TIP3     OH2      OT      -0.834000       15.9994           0
     29832 TIP3     4153     TIP3     H1       HT       0.417000       1.00800           0
     29833 TIP3     4153     TIP3     H2       HT       0.417000       1.00800           0
     29834 TIP3     4154     TIP3     OH2      OT      -0.834000       15.9994           0
     29835 TIP3     4154     TIP3     H1       HT       0.417000       1.00800           0
     29836 TIP3     4154     TIP3     H2       HT       0.417000       1.00800           0
     29837 TIP3     4155     TIP3     OH2      OT      -0.834000       15.9994           0
     29838 TIP3     4155     TIP3     H1       HT       0.417000       1.00800           0
     29839 TIP3     4155     TIP3     H2       HT       0.417000       1.00800           0
     29840 TIP3     4156     TIP3     OH2      OT      -0.834000       15.9994           0
     29841 TIP3     4156     TIP3     H1       HT       0.417000       1.00800           0
     29842 TIP3     4156     TIP3     H2       HT       0.417000       1.00800           0
     29843 TIP3     4157     TIP3     OH2      OT      -0.834000       15.9994           0
     29844 TIP3     4157     TIP3     H1       HT       0.417000       1.00800           0
     29845 TIP3     4157     TIP3     H2       HT       0.417000       1.00800           0
     29846 TIP3     4158     TIP3     OH2      OT      -0.834000       15.9994           0
     29847 TIP3     4158     TIP3     H1       HT       0.417000       1.00800           0
     29848 TIP3     4158     TIP3     H2       HT       0.417000       1.00800           0
     29849 TIP3     4159     TIP3     OH2      OT      -0.834000       15.9994           0
     29850 TIP3     4159     TIP3     H1       HT       0.417000       1.00800           0
     29851 TIP3     4159     TIP3     H2       HT       0.417000       1.00800           0
     29852 TIP3     4160     TIP3     OH2      OT      -0.834000       15.9994           0
     29853 TIP3     4160     TIP3     H1       HT       0.417000       1.00800           0
     29854 TIP3     4160     TIP3     H2       HT       0.417000       1.00800           0
     29855 TIP3     4161     TIP3     OH2      OT      -0.834000       15.9994           0
     29856 TIP3     4161     TIP3     H1       HT       0.417000       1.00800           0
     29857 TIP3     4161     TIP3     H2       HT       0.417000       1.00800           0
     29858 TIP3     4162     TIP3     OH2      OT      -0.834000       15.9994           0
     29859 TIP3     4162     TIP3     H1       HT       0.417000       1.00800           0
     29860 TIP3     4162     TIP3     H2       HT       0.417000       1.00800           0
     29861 TIP3     4163     TIP3     OH2      OT      -0.834000       15.9994           0
     29862 TIP3     4163     TIP3     H1       HT       0.417000       1.00800           0
     29863 TIP3     4163     TIP3     H2       HT       0.417000       1.00800           0
     29864 TIP3     4164     TIP3     OH2      OT      -0.834000       15.9994           0
     29865 TIP3     4164     TIP3     H1       HT       0.417000       1.00800           0
     29866 TIP3     4164     TIP3     H2       HT       0.417000       1.00800           0
     29867 TIP3     4165     TIP3     OH2      OT      -0.834000       15.9994           0
     29868 TIP3     4165     TIP3     H1       HT       0.417000       1.00800           0
     29869 TIP3     4165     TIP3     H2       HT       0.417000       1.00800           0
     29870 TIP3     4166     TIP3     OH2      OT      -0.834000       15.9994           0
     29871 TIP3     4166     TIP3     H1       HT       0.417000       1.00800           0
     29872 TIP3     4166     TIP3     H2       HT       0.417000       1.00800           0
     29873 TIP3     4167     TIP3     OH2      OT      -0.834000       15.9994           0
     29874 TIP3     4167     TIP3     H1       HT       0.417000       1.00800           0
     29875 TIP3     4167     TIP3     H2       HT       0.417000       1.00800           0
     29876 TIP3     4168     TIP3     OH2      OT      -0.834000       15.9994           0
     29877 TIP3     4168     TIP3     H1       HT       0.417000       1.00800           0
     29878 TIP3     4168     TIP3     H2       HT       0.417000       1.00800           0
     29879 TIP3     4169     TIP3     OH2      OT      -0.834000       15.9994           0
     29880 TIP3     4169     TIP3     H1       HT       0.417000       1.00800           0
     29881 TIP3     4169     TIP3     H2       HT       0.417000       1.00800           0
     29882 TIP3     4170     TIP3     OH2      OT      -0.834000       15.9994           0
     29883 TIP3     4170     TIP3     H1       HT       0.417000       1.00800           0
     29884 TIP3     4170     TIP3     H2       HT       0.417000       1.00800           0
     29885 TIP3     4171     TIP3     OH2      OT      -0.834000       15.9994           0
     29886 TIP3     4171     TIP3     H1       HT       0.417000       1.00800           0
     29887 TIP3     4171     TIP3     H2       HT       0.417000       1.00800           0
     29888 TIP3     4172     TIP3     OH2      OT      -0.834000       15.9994           0
     29889 TIP3     4172     TIP3     H1       HT       0.417000       1.00800           0
     29890 TIP3     4172     TIP3     H2       HT       0.417000       1.00800           0
     29891 TIP3     4173     TIP3     OH2      OT      -0.834000       15.9994           0
     29892 TIP3     4173     TIP3     H1       HT       0.417000       1.00800           0
     29893 TIP3     4173     TIP3     H2       HT       0.417000       1.00800           0
     29894 TIP3     4174     TIP3     OH2      OT      -0.834000       15.9994           0
     29895 TIP3     4174     TIP3     H1       HT       0.417000       1.00800           0
     29896 TIP3     4174     TIP3     H2       HT       0.417000       1.00800           0
     29897 TIP3     4175     TIP3     OH2      OT      -0.834000       15.9994           0
     29898 TIP3     4175     TIP3     H1       HT       0.417000       1.00800           0
     29899 TIP3     4175     TIP3     H2       HT       0.417000       1.00800           0
     29900 TIP3     4176     TIP3     OH2      OT      -0.834000       15.9994           0
     29901 TIP3     4176     TIP3     H1       HT       0.417000       1.00800           0
     29902 TIP3     4176     TIP3     H2       HT       0.417000       1.00800           0
     29903 TIP3     4177     TIP3     OH2      OT      -0.834000       15.9994           0
     29904 TIP3     4177     TIP3     H1       HT       0.417000       1.00800           0
     29905 TIP3     4177     TIP3     H2       HT       0.417000       1.00800           0
     29906 TIP3     4178     TIP3     OH2      OT      -0.834000       15.9994           0
     29907 TIP3     4178     TIP3     H1       HT       0.417000       1.00800           0
     29908 TIP3     4178     TIP3     H2       HT       0.417000       1.00800           0
     29909 TIP3     4179     TIP3     OH2      OT      -0.834000       15.9994           0
     29910 TIP3     4179     TIP3     H1       HT       0.417000       1.00800           0
     29911 TIP3     4179     TIP3     H2       HT       0.417000       1.00800           0
     29912 TIP3     4180     TIP3     OH2      OT      -0.834000       15.9994           0
     29913 TIP3     4180     TIP3     H1       HT       0.417000       1.00800           0
     29914 TIP3     4180     TIP3     H2       HT       0.417000       1.00800           0
     29915 TIP3     4181     TIP3     OH2      OT      -0.834000       15.9994           0
     29916 TIP3     4181     TIP3     H1       HT       0.417000       1.00800           0
     29917 TIP3     4181     TIP3     H2       HT       0.417000       1.00800           0
     29918 TIP3     4182     TIP3     OH2      OT      -0.834000       15.9994           0
     29919 TIP3     4182     TIP3     H1       HT       0.417000       1.00800           0
     29920 TIP3     4182     TIP3     H2       HT       0.417000       1.00800           0
     29921 TIP3     4183     TIP3     OH2      OT      -0.834000       15.9994           0
     29922 TIP3     4183     TIP3     H1       HT       0.417000       1.00800           0
     29923 TIP3     4183     TIP3     H2       HT       0.417000       1.00800           0
     29924 TIP3     4184     TIP3     OH2      OT      -0.834000       15.9994           0
     29925 TIP3     4184     TIP3     H1       HT       0.417000       1.00800           0
     29926 TIP3     4184     TIP3     H2       HT       0.417000       1.00800           0
     29927 TIP3     4185     TIP3     OH2      OT      -0.834000       15.9994           0
     29928 TIP3     4185     TIP3     H1       HT       0.417000       1.00800           0
     29929 TIP3     4185     TIP3     H2       HT       0.417000       1.00800           0
     29930 TIP3     4186     TIP3     OH2      OT      -0.834000       15.9994           0
     29931 TIP3     4186     TIP3     H1       HT       0.417000       1.00800           0
     29932 TIP3     4186     TIP3     H2       HT       0.417000       1.00800           0
     29933 TIP3     4187     TIP3     OH2      OT      -0.834000       15.9994           0
     29934 TIP3     4187     TIP3     H1       HT       0.417000       1.00800           0
     29935 TIP3     4187     TIP3     H2       HT       0.417000       1.00800           0
     29936 TIP3     4188     TIP3     OH2      OT      -0.834000       15.9994           0
     29937 TIP3     4188     TIP3     H1       HT       0.417000       1.00800           0
     29938 TIP3     4188     TIP3     H2       HT       0.417000       1.00800           0
     29939 TIP3     4189     TIP3     OH2      OT      -0.834000       15.9994           0
     29940 TIP3     4189     TIP3     H1       HT       0.417000       1.00800           0
     29941 TIP3     4189     TIP3     H2       HT       0.417000       1.00800           0
     29942 TIP3     4190     TIP3     OH2      OT      -0.834000       15.9994           0
     29943 TIP3     4190     TIP3     H1       HT       0.417000       1.00800           0
     29944 TIP3     4190     TIP3     H2       HT       0.417000       1.00800           0
     29945 TIP3     4191     TIP3     OH2      OT      -0.834000       15.9994           0
     29946 TIP3     4191     TIP3     H1       HT       0.417000       1.00800           0
     29947 TIP3     4191     TIP3     H2       HT       0.417000       1.00800           0
     29948 TIP3     4192     TIP3     OH2      OT      -0.834000       15.9994           0
     29949 TIP3     4192     TIP3     H1       HT       0.417000       1.00800           0
     29950 TIP3     4192     TIP3     H2       HT       0.417000       1.00800           0
     29951 TIP3     4193     TIP3     OH2      OT      -0.834000       15.9994           0
     29952 TIP3     4193     TIP3     H1       HT       0.417000       1.00800           0
     29953 TIP3     4193     TIP3     H2       HT       0.417000       1.00800           0
     29954 TIP3     4194     TIP3     OH2      OT      -0.834000       15.9994           0
     29955 TIP3     4194     TIP3     H1       HT       0.417000       1.00800           0
     29956 TIP3     4194     TIP3     H2       HT       0.417000       1.00800           0
     29957 TIP3     4195     TIP3     OH2      OT      -0.834000       15.9994           0
     29958 TIP3     4195     TIP3     H1       HT       0.417000       1.00800           0
     29959 TIP3     4195     TIP3     H2       HT       0.417000       1.00800           0
     29960 TIP3     4196     TIP3     OH2      OT      -0.834000       15.9994           0
     29961 TIP3     4196     TIP3     H1       HT       0.417000       1.00800           0
     29962 TIP3     4196     TIP3     H2       HT       0.417000       1.00800           0
     29963 TIP3     4197     TIP3     OH2      OT      -0.834000       15.9994           0
     29964 TIP3     4197     TIP3     H1       HT       0.417000       1.00800           0
     29965 TIP3     4197     TIP3     H2       HT       0.417000       1.00800           0
     29966 TIP3     4198     TIP3     OH2      OT      -0.834000       15.9994           0
     29967 TIP3     4198     TIP3     H1       HT       0.417000       1.00800           0
     29968 TIP3     4198     TIP3     H2       HT       0.417000       1.00800           0
     29969 TIP3     4199     TIP3     OH2      OT      -0.834000       15.9994           0
     29970 TIP3     4199     TIP3     H1       HT       0.417000       1.00800           0
     29971 TIP3     4199     TIP3     H2       HT       0.417000       1.00800           0
     29972 TIP3     4200     TIP3     OH2      OT      -0.834000       15.9994           0
     29973 TIP3     4200     TIP3     H1       HT       0.417000       1.00800           0
     29974 TIP3     4200     TIP3     H2       HT       0.417000       1.00800           0
     29975 TIP3     4201     TIP3     OH2      OT      -0.834000       15.9994           0
     29976 TIP3     4201     TIP3     H1       HT       0.417000       1.00800           0
     29977 TIP3     4201     TIP3     H2       HT       0.417000       1.00800           0
     29978 TIP3     4202     TIP3     OH2      OT      -0.834000       15.9994           0
     29979 TIP3     4202     TIP3     H1       HT       0.417000       1.00800           0
     29980 TIP3     4202     TIP3     H2       HT       0.417000       1.00800           0
     29981 TIP3     4203     TIP3     OH2      OT      -0.834000       15.9994           0
     29982 TIP3     4203     TIP3     H1       HT       0.417000       1.00800           0
     29983 TIP3     4203     TIP3     H2       HT       0.417000       1.00800           0
     29984 TIP3     4204     TIP3     OH2      OT      -0.834000       15.9994           0
     29985 TIP3     4204     TIP3     H1       HT       0.417000       1.00800           0
     29986 TIP3     4204     TIP3     H2       HT       0.417000       1.00800           0
     29987 TIP3     4205     TIP3     OH2      OT      -0.834000       15.9994           0
     29988 TIP3     4205     TIP3     H1       HT       0.417000       1.00800           0
     29989 TIP3     4205     TIP3     H2       HT       0.417000       1.00800           0
     29990 TIP3     4206     TIP3     OH2      OT      -0.834000       15.9994           0
     29991 TIP3     4206     TIP3     H1       HT       0.417000       1.00800           0
     29992 TIP3     4206     TIP3     H2       HT       0.417000       1.00800           0
     29993 TIP3     4207     TIP3     OH2      OT      -0.834000       15.9994           0
     29994 TIP3     4207     TIP3     H1       HT       0.417000       1.00800           0
     29995 TIP3     4207     TIP3     H2       HT       0.417000       1.00800           0
     29996 TIP3     4208     TIP3     OH2      OT      -0.834000       15.9994           0
     29997 TIP3     4208     TIP3     H1       HT       0.417000       1.00800           0
     29998 TIP3     4208     TIP3     H2       HT       0.417000       1.00800           0
     29999 TIP3     4209     TIP3     OH2      OT      -0.834000       15.9994           0
     30000 TIP3     4209     TIP3     H1       HT       0.417000       1.00800           0
     30001 TIP3     4209     TIP3     H2       HT       0.417000       1.00800           0
     30002 TIP3     4210     TIP3     OH2      OT      -0.834000       15.9994           0
     30003 TIP3     4210     TIP3     H1       HT       0.417000       1.00800           0
     30004 TIP3     4210     TIP3     H2       HT       0.417000       1.00800           0
     30005 TIP3     4211     TIP3     OH2      OT      -0.834000       15.9994           0
     30006 TIP3     4211     TIP3     H1       HT       0.417000       1.00800           0
     30007 TIP3     4211     TIP3     H2       HT       0.417000       1.00800           0
     30008 TIP3     4212     TIP3     OH2      OT      -0.834000       15.9994           0
     30009 TIP3     4212     TIP3     H1       HT       0.417000       1.00800           0
     30010 TIP3     4212     TIP3     H2       HT       0.417000       1.00800           0
     30011 TIP3     4213     TIP3     OH2      OT      -0.834000       15.9994           0
     30012 TIP3     4213     TIP3     H1       HT       0.417000       1.00800           0
     30013 TIP3     4213     TIP3     H2       HT       0.417000       1.00800           0
     30014 TIP3     4214     TIP3     OH2      OT      -0.834000       15.9994           0
     30015 TIP3     4214     TIP3     H1       HT       0.417000       1.00800           0
     30016 TIP3     4214     TIP3     H2       HT       0.417000       1.00800           0
     30017 TIP3     4215     TIP3     OH2      OT      -0.834000       15.9994           0
     30018 TIP3     4215     TIP3     H1       HT       0.417000       1.00800           0
     30019 TIP3     4215     TIP3     H2       HT       0.417000       1.00800           0
     30020 TIP3     4216     TIP3     OH2      OT      -0.834000       15.9994           0
     30021 TIP3     4216     TIP3     H1       HT       0.417000       1.00800           0
     30022 TIP3     4216     TIP3     H2       HT       0.417000       1.00800           0
     30023 TIP3     4217     TIP3     OH2      OT      -0.834000       15.9994           0
     30024 TIP3     4217     TIP3     H1       HT       0.417000       1.00800           0
     30025 TIP3     4217     TIP3     H2       HT       0.417000       1.00800           0
     30026 TIP3     4218     TIP3     OH2      OT      -0.834000       15.9994           0
     30027 TIP3     4218     TIP3     H1       HT       0.417000       1.00800           0
     30028 TIP3     4218     TIP3     H2       HT       0.417000       1.00800           0
     30029 TIP3     4219     TIP3     OH2      OT      -0.834000       15.9994           0
     30030 TIP3     4219     TIP3     H1       HT       0.417000       1.00800           0
     30031 TIP3     4219     TIP3     H2       HT       0.417000       1.00800           0
     30032 TIP3     4220     TIP3     OH2      OT      -0.834000       15.9994           0
     30033 TIP3     4220     TIP3     H1       HT       0.417000       1.00800           0
     30034 TIP3     4220     TIP3     H2       HT       0.417000       1.00800           0
     30035 TIP3     4221     TIP3     OH2      OT      -0.834000       15.9994           0
     30036 TIP3     4221     TIP3     H1       HT       0.417000       1.00800           0
     30037 TIP3     4221     TIP3     H2       HT       0.417000       1.00800           0
     30038 TIP3     4222     TIP3     OH2      OT      -0.834000       15.9994           0
     30039 TIP3     4222     TIP3     H1       HT       0.417000       1.00800           0
     30040 TIP3     4222     TIP3     H2       HT       0.417000       1.00800           0
     30041 TIP3     4223     TIP3     OH2      OT      -0.834000       15.9994           0
     30042 TIP3     4223     TIP3     H1       HT       0.417000       1.00800           0
     30043 TIP3     4223     TIP3     H2       HT       0.417000       1.00800           0
     30044 TIP3     4224     TIP3     OH2      OT      -0.834000       15.9994           0
     30045 TIP3     4224     TIP3     H1       HT       0.417000       1.00800           0
     30046 TIP3     4224     TIP3     H2       HT       0.417000       1.00800           0
     30047 TIP3     4225     TIP3     OH2      OT      -0.834000       15.9994           0
     30048 TIP3     4225     TIP3     H1       HT       0.417000       1.00800           0
     30049 TIP3     4225     TIP3     H2       HT       0.417000       1.00800           0
     30050 TIP3     4226     TIP3     OH2      OT      -0.834000       15.9994           0
     30051 TIP3     4226     TIP3     H1       HT       0.417000       1.00800           0
     30052 TIP3     4226     TIP3     H2       HT       0.417000       1.00800           0
     30053 TIP3     4227     TIP3     OH2      OT      -0.834000       15.9994           0
     30054 TIP3     4227     TIP3     H1       HT       0.417000       1.00800           0
     30055 TIP3     4227     TIP3     H2       HT       0.417000       1.00800           0
     30056 TIP3     4228     TIP3     OH2      OT      -0.834000       15.9994           0
     30057 TIP3     4228     TIP3     H1       HT       0.417000       1.00800           0
     30058 TIP3     4228     TIP3     H2       HT       0.417000       1.00800           0
     30059 TIP3     4229     TIP3     OH2      OT      -0.834000       15.9994           0
     30060 TIP3     4229     TIP3     H1       HT       0.417000       1.00800           0
     30061 TIP3     4229     TIP3     H2       HT       0.417000       1.00800           0
     30062 TIP3     4230     TIP3     OH2      OT      -0.834000       15.9994           0
     30063 TIP3     4230     TIP3     H1       HT       0.417000       1.00800           0
     30064 TIP3     4230     TIP3     H2       HT       0.417000       1.00800           0
     30065 TIP3     4231     TIP3     OH2      OT      -0.834000       15.9994           0
     30066 TIP3     4231     TIP3     H1       HT       0.417000       1.00800           0
     30067 TIP3     4231     TIP3     H2       HT       0.417000       1.00800           0
     30068 TIP3     4232     TIP3     OH2      OT      -0.834000       15.9994           0
     30069 TIP3     4232     TIP3     H1       HT       0.417000       1.00800           0
     30070 TIP3     4232     TIP3     H2       HT       0.417000       1.00800           0
     30071 TIP3     4233     TIP3     OH2      OT      -0.834000       15.9994           0
     30072 TIP3     4233     TIP3     H1       HT       0.417000       1.00800           0
     30073 TIP3     4233     TIP3     H2       HT       0.417000       1.00800           0
     30074 TIP3     4234     TIP3     OH2      OT      -0.834000       15.9994           0
     30075 TIP3     4234     TIP3     H1       HT       0.417000       1.00800           0
     30076 TIP3     4234     TIP3     H2       HT       0.417000       1.00800           0
     30077 TIP3     4235     TIP3     OH2      OT      -0.834000       15.9994           0
     30078 TIP3     4235     TIP3     H1       HT       0.417000       1.00800           0
     30079 TIP3     4235     TIP3     H2       HT       0.417000       1.00800           0
     30080 TIP3     4236     TIP3     OH2      OT      -0.834000       15.9994           0
     30081 TIP3     4236     TIP3     H1       HT       0.417000       1.00800           0
     30082 TIP3     4236     TIP3     H2       HT       0.417000       1.00800           0
     30083 TIP3     4237     TIP3     OH2      OT      -0.834000       15.9994           0
     30084 TIP3     4237     TIP3     H1       HT       0.417000       1.00800           0
     30085 TIP3     4237     TIP3     H2       HT       0.417000       1.00800           0
     30086 TIP3     4238     TIP3     OH2      OT      -0.834000       15.9994           0
     30087 TIP3     4238     TIP3     H1       HT       0.417000       1.00800           0
     30088 TIP3     4238     TIP3     H2       HT       0.417000       1.00800           0
     30089 TIP3     4239     TIP3     OH2      OT      -0.834000       15.9994           0
     30090 TIP3     4239     TIP3     H1       HT       0.417000       1.00800           0
     30091 TIP3     4239     TIP3     H2       HT       0.417000       1.00800           0
     30092 TIP3     4240     TIP3     OH2      OT      -0.834000       15.9994           0
     30093 TIP3     4240     TIP3     H1       HT       0.417000       1.00800           0
     30094 TIP3     4240     TIP3     H2       HT       0.417000       1.00800           0
     30095 TIP3     4241     TIP3     OH2      OT      -0.834000       15.9994           0
     30096 TIP3     4241     TIP3     H1       HT       0.417000       1.00800           0
     30097 TIP3     4241     TIP3     H2       HT       0.417000       1.00800           0
     30098 TIP3     4242     TIP3     OH2      OT      -0.834000       15.9994           0
     30099 TIP3     4242     TIP3     H1       HT       0.417000       1.00800           0
     30100 TIP3     4242     TIP3     H2       HT       0.417000       1.00800           0
     30101 TIP3     4243     TIP3     OH2      OT      -0.834000       15.9994           0
     30102 TIP3     4243     TIP3     H1       HT       0.417000       1.00800           0
     30103 TIP3     4243     TIP3     H2       HT       0.417000       1.00800           0
     30104 TIP3     4244     TIP3     OH2      OT      -0.834000       15.9994           0
     30105 TIP3     4244     TIP3     H1       HT       0.417000       1.00800           0
     30106 TIP3     4244     TIP3     H2       HT       0.417000       1.00800           0
     30107 TIP3     4245     TIP3     OH2      OT      -0.834000       15.9994           0
     30108 TIP3     4245     TIP3     H1       HT       0.417000       1.00800           0
     30109 TIP3     4245     TIP3     H2       HT       0.417000       1.00800           0
     30110 TIP3     4246     TIP3     OH2      OT      -0.834000       15.9994           0
     30111 TIP3     4246     TIP3     H1       HT       0.417000       1.00800           0
     30112 TIP3     4246     TIP3     H2       HT       0.417000       1.00800           0
     30113 TIP3     4247     TIP3     OH2      OT      -0.834000       15.9994           0
     30114 TIP3     4247     TIP3     H1       HT       0.417000       1.00800           0
     30115 TIP3     4247     TIP3     H2       HT       0.417000       1.00800           0
     30116 TIP3     4248     TIP3     OH2      OT      -0.834000       15.9994           0
     30117 TIP3     4248     TIP3     H1       HT       0.417000       1.00800           0
     30118 TIP3     4248     TIP3     H2       HT       0.417000       1.00800           0
     30119 TIP3     4249     TIP3     OH2      OT      -0.834000       15.9994           0
     30120 TIP3     4249     TIP3     H1       HT       0.417000       1.00800           0
     30121 TIP3     4249     TIP3     H2       HT       0.417000       1.00800           0
     30122 TIP3     4250     TIP3     OH2      OT      -0.834000       15.9994           0
     30123 TIP3     4250     TIP3     H1       HT       0.417000       1.00800           0
     30124 TIP3     4250     TIP3     H2       HT       0.417000       1.00800           0
     30125 TIP3     4251     TIP3     OH2      OT      -0.834000       15.9994           0
     30126 TIP3     4251     TIP3     H1       HT       0.417000       1.00800           0
     30127 TIP3     4251     TIP3     H2       HT       0.417000       1.00800           0
     30128 TIP3     4252     TIP3     OH2      OT      -0.834000       15.9994           0
     30129 TIP3     4252     TIP3     H1       HT       0.417000       1.00800           0
     30130 TIP3     4252     TIP3     H2       HT       0.417000       1.00800           0
     30131 TIP3     4253     TIP3     OH2      OT      -0.834000       15.9994           0
     30132 TIP3     4253     TIP3     H1       HT       0.417000       1.00800           0
     30133 TIP3     4253     TIP3     H2       HT       0.417000       1.00800           0
     30134 TIP3     4254     TIP3     OH2      OT      -0.834000       15.9994           0
     30135 TIP3     4254     TIP3     H1       HT       0.417000       1.00800           0
     30136 TIP3     4254     TIP3     H2       HT       0.417000       1.00800           0
     30137 TIP3     4255     TIP3     OH2      OT      -0.834000       15.9994           0
     30138 TIP3     4255     TIP3     H1       HT       0.417000       1.00800           0
     30139 TIP3     4255     TIP3     H2       HT       0.417000       1.00800           0
     30140 TIP3     4256     TIP3     OH2      OT      -0.834000       15.9994           0
     30141 TIP3     4256     TIP3     H1       HT       0.417000       1.00800           0
     30142 TIP3     4256     TIP3     H2       HT       0.417000       1.00800           0
     30143 TIP3     4257     TIP3     OH2      OT      -0.834000       15.9994           0
     30144 TIP3     4257     TIP3     H1       HT       0.417000       1.00800           0
     30145 TIP3     4257     TIP3     H2       HT       0.417000       1.00800           0
     30146 TIP3     4258     TIP3     OH2      OT      -0.834000       15.9994           0
     30147 TIP3     4258     TIP3     H1       HT       0.417000       1.00800           0
     30148 TIP3     4258     TIP3     H2       HT       0.417000       1.00800           0
     30149 TIP3     4259     TIP3     OH2      OT      -0.834000       15.9994           0
     30150 TIP3     4259     TIP3     H1       HT       0.417000       1.00800           0
     30151 TIP3     4259     TIP3     H2       HT       0.417000       1.00800           0
     30152 TIP3     4260     TIP3     OH2      OT      -0.834000       15.9994           0
     30153 TIP3     4260     TIP3     H1       HT       0.417000       1.00800           0
     30154 TIP3     4260     TIP3     H2       HT       0.417000       1.00800           0
     30155 TIP3     4261     TIP3     OH2      OT      -0.834000       15.9994           0
     30156 TIP3     4261     TIP3     H1       HT       0.417000       1.00800           0
     30157 TIP3     4261     TIP3     H2       HT       0.417000       1.00800           0
     30158 TIP3     4262     TIP3     OH2      OT      -0.834000       15.9994           0
     30159 TIP3     4262     TIP3     H1       HT       0.417000       1.00800           0
     30160 TIP3     4262     TIP3     H2       HT       0.417000       1.00800           0
     30161 TIP3     4263     TIP3     OH2      OT      -0.834000       15.9994           0
     30162 TIP3     4263     TIP3     H1       HT       0.417000       1.00800           0
     30163 TIP3     4263     TIP3     H2       HT       0.417000       1.00800           0
     30164 TIP3     4264     TIP3     OH2      OT      -0.834000       15.9994           0
     30165 TIP3     4264     TIP3     H1       HT       0.417000       1.00800           0
     30166 TIP3     4264     TIP3     H2       HT       0.417000       1.00800           0
     30167 TIP3     4265     TIP3     OH2      OT      -0.834000       15.9994           0
     30168 TIP3     4265     TIP3     H1       HT       0.417000       1.00800           0
     30169 TIP3     4265     TIP3     H2       HT       0.417000       1.00800           0
     30170 TIP3     4266     TIP3     OH2      OT      -0.834000       15.9994           0
     30171 TIP3     4266     TIP3     H1       HT       0.417000       1.00800           0
     30172 TIP3     4266     TIP3     H2       HT       0.417000       1.00800           0
     30173 TIP3     4267     TIP3     OH2      OT      -0.834000       15.9994           0
     30174 TIP3     4267     TIP3     H1       HT       0.417000       1.00800           0
     30175 TIP3     4267     TIP3     H2       HT       0.417000       1.00800           0
     30176 TIP3     4268     TIP3     OH2      OT      -0.834000       15.9994           0
     30177 TIP3     4268     TIP3     H1       HT       0.417000       1.00800           0
     30178 TIP3     4268     TIP3     H2       HT       0.417000       1.00800           0
     30179 TIP3     4269     TIP3     OH2      OT      -0.834000       15.9994           0
     30180 TIP3     4269     TIP3     H1       HT       0.417000       1.00800           0
     30181 TIP3     4269     TIP3     H2       HT       0.417000       1.00800           0
     30182 TIP3     4270     TIP3     OH2      OT      -0.834000       15.9994           0
     30183 TIP3     4270     TIP3     H1       HT       0.417000       1.00800           0
     30184 TIP3     4270     TIP3     H2       HT       0.417000       1.00800           0
     30185 TIP3     4271     TIP3     OH2      OT      -0.834000       15.9994           0
     30186 TIP3     4271     TIP3     H1       HT       0.417000       1.00800           0
     30187 TIP3     4271     TIP3     H2       HT       0.417000       1.00800           0
     30188 TIP3     4272     TIP3     OH2      OT      -0.834000       15.9994           0
     30189 TIP3     4272     TIP3     H1       HT       0.417000       1.00800           0
     30190 TIP3     4272     TIP3     H2       HT       0.417000       1.00800           0
     30191 TIP3     4273     TIP3     OH2      OT      -0.834000       15.9994           0
     30192 TIP3     4273     TIP3     H1       HT       0.417000       1.00800           0
     30193 TIP3     4273     TIP3     H2       HT       0.417000       1.00800           0
     30194 TIP3     4274     TIP3     OH2      OT      -0.834000       15.9994           0
     30195 TIP3     4274     TIP3     H1       HT       0.417000       1.00800           0
     30196 TIP3     4274     TIP3     H2       HT       0.417000       1.00800           0
     30197 TIP3     4275     TIP3     OH2      OT      -0.834000       15.9994           0
     30198 TIP3     4275     TIP3     H1       HT       0.417000       1.00800           0
     30199 TIP3     4275     TIP3     H2       HT       0.417000       1.00800           0
     30200 TIP3     4276     TIP3     OH2      OT      -0.834000       15.9994           0
     30201 TIP3     4276     TIP3     H1       HT       0.417000       1.00800           0
     30202 TIP3     4276     TIP3     H2       HT       0.417000       1.00800           0
     30203 TIP3     4277     TIP3     OH2      OT      -0.834000       15.9994           0
     30204 TIP3     4277     TIP3     H1       HT       0.417000       1.00800           0
     30205 TIP3     4277     TIP3     H2       HT       0.417000       1.00800           0
     30206 TIP3     4278     TIP3     OH2      OT      -0.834000       15.9994           0
     30207 TIP3     4278     TIP3     H1       HT       0.417000       1.00800           0
     30208 TIP3     4278     TIP3     H2       HT       0.417000       1.00800           0
     30209 TIP3     4279     TIP3     OH2      OT      -0.834000       15.9994           0
     30210 TIP3     4279     TIP3     H1       HT       0.417000       1.00800           0
     30211 TIP3     4279     TIP3     H2       HT       0.417000       1.00800           0
     30212 TIP3     4280     TIP3     OH2      OT      -0.834000       15.9994           0
     30213 TIP3     4280     TIP3     H1       HT       0.417000       1.00800           0
     30214 TIP3     4280     TIP3     H2       HT       0.417000       1.00800           0
     30215 TIP3     4281     TIP3     OH2      OT      -0.834000       15.9994           0
     30216 TIP3     4281     TIP3     H1       HT       0.417000       1.00800           0
     30217 TIP3     4281     TIP3     H2       HT       0.417000       1.00800           0
     30218 TIP3     4282     TIP3     OH2      OT      -0.834000       15.9994           0
     30219 TIP3     4282     TIP3     H1       HT       0.417000       1.00800           0
     30220 TIP3     4282     TIP3     H2       HT       0.417000       1.00800           0
     30221 TIP3     4283     TIP3     OH2      OT      -0.834000       15.9994           0
     30222 TIP3     4283     TIP3     H1       HT       0.417000       1.00800           0
     30223 TIP3     4283     TIP3     H2       HT       0.417000       1.00800           0
     30224 TIP3     4284     TIP3     OH2      OT      -0.834000       15.9994           0
     30225 TIP3     4284     TIP3     H1       HT       0.417000       1.00800           0
     30226 TIP3     4284     TIP3     H2       HT       0.417000       1.00800           0
     30227 TIP3     4285     TIP3     OH2      OT      -0.834000       15.9994           0
     30228 TIP3     4285     TIP3     H1       HT       0.417000       1.00800           0
     30229 TIP3     4285     TIP3     H2       HT       0.417000       1.00800           0
     30230 TIP3     4286     TIP3     OH2      OT      -0.834000       15.9994           0
     30231 TIP3     4286     TIP3     H1       HT       0.417000       1.00800           0
     30232 TIP3     4286     TIP3     H2       HT       0.417000       1.00800           0
     30233 TIP3     4287     TIP3     OH2      OT      -0.834000       15.9994           0
     30234 TIP3     4287     TIP3     H1       HT       0.417000       1.00800           0
     30235 TIP3     4287     TIP3     H2       HT       0.417000       1.00800           0
     30236 TIP3     4288     TIP3     OH2      OT      -0.834000       15.9994           0
     30237 TIP3     4288     TIP3     H1       HT       0.417000       1.00800           0
     30238 TIP3     4288     TIP3     H2       HT       0.417000       1.00800           0
     30239 TIP3     4289     TIP3     OH2      OT      -0.834000       15.9994           0
     30240 TIP3     4289     TIP3     H1       HT       0.417000       1.00800           0
     30241 TIP3     4289     TIP3     H2       HT       0.417000       1.00800           0
     30242 TIP3     4290     TIP3     OH2      OT      -0.834000       15.9994           0
     30243 TIP3     4290     TIP3     H1       HT       0.417000       1.00800           0
     30244 TIP3     4290     TIP3     H2       HT       0.417000       1.00800           0
     30245 TIP3     4291     TIP3     OH2      OT      -0.834000       15.9994           0
     30246 TIP3     4291     TIP3     H1       HT       0.417000       1.00800           0
     30247 TIP3     4291     TIP3     H2       HT       0.417000       1.00800           0
     30248 TIP3     4292     TIP3     OH2      OT      -0.834000       15.9994           0
     30249 TIP3     4292     TIP3     H1       HT       0.417000       1.00800           0
     30250 TIP3     4292     TIP3     H2       HT       0.417000       1.00800           0
     30251 TIP3     4293     TIP3     OH2      OT      -0.834000       15.9994           0
     30252 TIP3     4293     TIP3     H1       HT       0.417000       1.00800           0
     30253 TIP3     4293     TIP3     H2       HT       0.417000       1.00800           0
     30254 TIP3     4294     TIP3     OH2      OT      -0.834000       15.9994           0
     30255 TIP3     4294     TIP3     H1       HT       0.417000       1.00800           0
     30256 TIP3     4294     TIP3     H2       HT       0.417000       1.00800           0
     30257 TIP3     4295     TIP3     OH2      OT      -0.834000       15.9994           0
     30258 TIP3     4295     TIP3     H1       HT       0.417000       1.00800           0
     30259 TIP3     4295     TIP3     H2       HT       0.417000       1.00800           0
     30260 TIP3     4296     TIP3     OH2      OT      -0.834000       15.9994           0
     30261 TIP3     4296     TIP3     H1       HT       0.417000       1.00800           0
     30262 TIP3     4296     TIP3     H2       HT       0.417000       1.00800           0
     30263 TIP3     4297     TIP3     OH2      OT      -0.834000       15.9994           0
     30264 TIP3     4297     TIP3     H1       HT       0.417000       1.00800           0
     30265 TIP3     4297     TIP3     H2       HT       0.417000       1.00800           0
     30266 TIP3     4298     TIP3     OH2      OT      -0.834000       15.9994           0
     30267 TIP3     4298     TIP3     H1       HT       0.417000       1.00800           0
     30268 TIP3     4298     TIP3     H2       HT       0.417000       1.00800           0
     30269 TIP3     4299     TIP3     OH2      OT      -0.834000       15.9994           0
     30270 TIP3     4299     TIP3     H1       HT       0.417000       1.00800           0
     30271 TIP3     4299     TIP3     H2       HT       0.417000       1.00800           0
     30272 TIP3     4300     TIP3     OH2      OT      -0.834000       15.9994           0
     30273 TIP3     4300     TIP3     H1       HT       0.417000       1.00800           0
     30274 TIP3     4300     TIP3     H2       HT       0.417000       1.00800           0
     30275 TIP3     4301     TIP3     OH2      OT      -0.834000       15.9994           0
     30276 TIP3     4301     TIP3     H1       HT       0.417000       1.00800           0
     30277 TIP3     4301     TIP3     H2       HT       0.417000       1.00800           0
     30278 TIP3     4302     TIP3     OH2      OT      -0.834000       15.9994           0
     30279 TIP3     4302     TIP3     H1       HT       0.417000       1.00800           0
     30280 TIP3     4302     TIP3     H2       HT       0.417000       1.00800           0
     30281 TIP3     4303     TIP3     OH2      OT      -0.834000       15.9994           0
     30282 TIP3     4303     TIP3     H1       HT       0.417000       1.00800           0
     30283 TIP3     4303     TIP3     H2       HT       0.417000       1.00800           0
     30284 TIP3     4304     TIP3     OH2      OT      -0.834000       15.9994           0
     30285 TIP3     4304     TIP3     H1       HT       0.417000       1.00800           0
     30286 TIP3     4304     TIP3     H2       HT       0.417000       1.00800           0
     30287 TIP3     4305     TIP3     OH2      OT      -0.834000       15.9994           0
     30288 TIP3     4305     TIP3     H1       HT       0.417000       1.00800           0
     30289 TIP3     4305     TIP3     H2       HT       0.417000       1.00800           0
     30290 TIP3     4306     TIP3     OH2      OT      -0.834000       15.9994           0
     30291 TIP3     4306     TIP3     H1       HT       0.417000       1.00800           0
     30292 TIP3     4306     TIP3     H2       HT       0.417000       1.00800           0
     30293 TIP3     4307     TIP3     OH2      OT      -0.834000       15.9994           0
     30294 TIP3     4307     TIP3     H1       HT       0.417000       1.00800           0
     30295 TIP3     4307     TIP3     H2       HT       0.417000       1.00800           0
     30296 TIP3     4308     TIP3     OH2      OT      -0.834000       15.9994           0
     30297 TIP3     4308     TIP3     H1       HT       0.417000       1.00800           0
     30298 TIP3     4308     TIP3     H2       HT       0.417000       1.00800           0
     30299 TIP3     4309     TIP3     OH2      OT      -0.834000       15.9994           0
     30300 TIP3     4309     TIP3     H1       HT       0.417000       1.00800           0
     30301 TIP3     4309     TIP3     H2       HT       0.417000       1.00800           0
     30302 TIP3     4310     TIP3     OH2      OT      -0.834000       15.9994           0
     30303 TIP3     4310     TIP3     H1       HT       0.417000       1.00800           0
     30304 TIP3     4310     TIP3     H2       HT       0.417000       1.00800           0
     30305 TIP3     4311     TIP3     OH2      OT      -0.834000       15.9994           0
     30306 TIP3     4311     TIP3     H1       HT       0.417000       1.00800           0
     30307 TIP3     4311     TIP3     H2       HT       0.417000       1.00800           0
     30308 TIP3     4312     TIP3     OH2      OT      -0.834000       15.9994           0
     30309 TIP3     4312     TIP3     H1       HT       0.417000       1.00800           0
     30310 TIP3     4312     TIP3     H2       HT       0.417000       1.00800           0
     30311 TIP3     4313     TIP3     OH2      OT      -0.834000       15.9994           0
     30312 TIP3     4313     TIP3     H1       HT       0.417000       1.00800           0
     30313 TIP3     4313     TIP3     H2       HT       0.417000       1.00800           0
     30314 TIP3     4314     TIP3     OH2      OT      -0.834000       15.9994           0
     30315 TIP3     4314     TIP3     H1       HT       0.417000       1.00800           0
     30316 TIP3     4314     TIP3     H2       HT       0.417000       1.00800           0
     30317 TIP3     4315     TIP3     OH2      OT      -0.834000       15.9994           0
     30318 TIP3     4315     TIP3     H1       HT       0.417000       1.00800           0
     30319 TIP3     4315     TIP3     H2       HT       0.417000       1.00800           0
     30320 TIP3     4316     TIP3     OH2      OT      -0.834000       15.9994           0
     30321 TIP3     4316     TIP3     H1       HT       0.417000       1.00800           0
     30322 TIP3     4316     TIP3     H2       HT       0.417000       1.00800           0
     30323 TIP3     4317     TIP3     OH2      OT      -0.834000       15.9994           0
     30324 TIP3     4317     TIP3     H1       HT       0.417000       1.00800           0
     30325 TIP3     4317     TIP3     H2       HT       0.417000       1.00800           0
     30326 TIP3     4318     TIP3     OH2      OT      -0.834000       15.9994           0
     30327 TIP3     4318     TIP3     H1       HT       0.417000       1.00800           0
     30328 TIP3     4318     TIP3     H2       HT       0.417000       1.00800           0
     30329 TIP3     4319     TIP3     OH2      OT      -0.834000       15.9994           0
     30330 TIP3     4319     TIP3     H1       HT       0.417000       1.00800           0
     30331 TIP3     4319     TIP3     H2       HT       0.417000       1.00800           0
     30332 TIP3     4320     TIP3     OH2      OT      -0.834000       15.9994           0
     30333 TIP3     4320     TIP3     H1       HT       0.417000       1.00800           0
     30334 TIP3     4320     TIP3     H2       HT       0.417000       1.00800           0
     30335 TIP3     4321     TIP3     OH2      OT      -0.834000       15.9994           0
     30336 TIP3     4321     TIP3     H1       HT       0.417000       1.00800           0
     30337 TIP3     4321     TIP3     H2       HT       0.417000       1.00800           0
     30338 TIP3     4322     TIP3     OH2      OT      -0.834000       15.9994           0
     30339 TIP3     4322     TIP3     H1       HT       0.417000       1.00800           0
     30340 TIP3     4322     TIP3     H2       HT       0.417000       1.00800           0
     30341 TIP3     4323     TIP3     OH2      OT      -0.834000       15.9994           0
     30342 TIP3     4323     TIP3     H1       HT       0.417000       1.00800           0
     30343 TIP3     4323     TIP3     H2       HT       0.417000       1.00800           0
     30344 TIP3     4324     TIP3     OH2      OT      -0.834000       15.9994           0
     30345 TIP3     4324     TIP3     H1       HT       0.417000       1.00800           0
     30346 TIP3     4324     TIP3     H2       HT       0.417000       1.00800           0
     30347 TIP3     4325     TIP3     OH2      OT      -0.834000       15.9994           0
     30348 TIP3     4325     TIP3     H1       HT       0.417000       1.00800           0
     30349 TIP3     4325     TIP3     H2       HT       0.417000       1.00800           0
     30350 TIP3     4326     TIP3     OH2      OT      -0.834000       15.9994           0
     30351 TIP3     4326     TIP3     H1       HT       0.417000       1.00800           0
     30352 TIP3     4326     TIP3     H2       HT       0.417000       1.00800           0
     30353 TIP3     4327     TIP3     OH2      OT      -0.834000       15.9994           0
     30354 TIP3     4327     TIP3     H1       HT       0.417000       1.00800           0
     30355 TIP3     4327     TIP3     H2       HT       0.417000       1.00800           0
     30356 TIP3     4328     TIP3     OH2      OT      -0.834000       15.9994           0
     30357 TIP3     4328     TIP3     H1       HT       0.417000       1.00800           0
     30358 TIP3     4328     TIP3     H2       HT       0.417000       1.00800           0
     30359 TIP3     4329     TIP3     OH2      OT      -0.834000       15.9994           0
     30360 TIP3     4329     TIP3     H1       HT       0.417000       1.00800           0
     30361 TIP3     4329     TIP3     H2       HT       0.417000       1.00800           0
     30362 TIP3     4330     TIP3     OH2      OT      -0.834000       15.9994           0
     30363 TIP3     4330     TIP3     H1       HT       0.417000       1.00800           0
     30364 TIP3     4330     TIP3     H2       HT       0.417000       1.00800           0
     30365 TIP3     4331     TIP3     OH2      OT      -0.834000       15.9994           0
     30366 TIP3     4331     TIP3     H1       HT       0.417000       1.00800           0
     30367 TIP3     4331     TIP3     H2       HT       0.417000       1.00800           0
     30368 TIP3     4332     TIP3     OH2      OT      -0.834000       15.9994           0
     30369 TIP3     4332     TIP3     H1       HT       0.417000       1.00800           0
     30370 TIP3     4332     TIP3     H2       HT       0.417000       1.00800           0
     30371 TIP3     4333     TIP3     OH2      OT      -0.834000       15.9994           0
     30372 TIP3     4333     TIP3     H1       HT       0.417000       1.00800           0
     30373 TIP3     4333     TIP3     H2       HT       0.417000       1.00800           0
     30374 TIP3     4334     TIP3     OH2      OT      -0.834000       15.9994           0
     30375 TIP3     4334     TIP3     H1       HT       0.417000       1.00800           0
     30376 TIP3     4334     TIP3     H2       HT       0.417000       1.00800           0
     30377 TIP3     4335     TIP3     OH2      OT      -0.834000       15.9994           0
     30378 TIP3     4335     TIP3     H1       HT       0.417000       1.00800           0
     30379 TIP3     4335     TIP3     H2       HT       0.417000       1.00800           0
     30380 TIP3     4336     TIP3     OH2      OT      -0.834000       15.9994           0
     30381 TIP3     4336     TIP3     H1       HT       0.417000       1.00800           0
     30382 TIP3     4336     TIP3     H2       HT       0.417000       1.00800           0
     30383 TIP3     4337     TIP3     OH2      OT      -0.834000       15.9994           0
     30384 TIP3     4337     TIP3     H1       HT       0.417000       1.00800           0
     30385 TIP3     4337     TIP3     H2       HT       0.417000       1.00800           0
     30386 TIP3     4338     TIP3     OH2      OT      -0.834000       15.9994           0
     30387 TIP3     4338     TIP3     H1       HT       0.417000       1.00800           0
     30388 TIP3     4338     TIP3     H2       HT       0.417000       1.00800           0
     30389 TIP3     4339     TIP3     OH2      OT      -0.834000       15.9994           0
     30390 TIP3     4339     TIP3     H1       HT       0.417000       1.00800           0
     30391 TIP3     4339     TIP3     H2       HT       0.417000       1.00800           0
     30392 TIP3     4340     TIP3     OH2      OT      -0.834000       15.9994           0
     30393 TIP3     4340     TIP3     H1       HT       0.417000       1.00800           0
     30394 TIP3     4340     TIP3     H2       HT       0.417000       1.00800           0
     30395 TIP3     4341     TIP3     OH2      OT      -0.834000       15.9994           0
     30396 TIP3     4341     TIP3     H1       HT       0.417000       1.00800           0
     30397 TIP3     4341     TIP3     H2       HT       0.417000       1.00800           0
     30398 TIP3     4342     TIP3     OH2      OT      -0.834000       15.9994           0
     30399 TIP3     4342     TIP3     H1       HT       0.417000       1.00800           0
     30400 TIP3     4342     TIP3     H2       HT       0.417000       1.00800           0
     30401 TIP3     4343     TIP3     OH2      OT      -0.834000       15.9994           0
     30402 TIP3     4343     TIP3     H1       HT       0.417000       1.00800           0
     30403 TIP3     4343     TIP3     H2       HT       0.417000       1.00800           0
     30404 TIP3     4344     TIP3     OH2      OT      -0.834000       15.9994           0
     30405 TIP3     4344     TIP3     H1       HT       0.417000       1.00800           0
     30406 TIP3     4344     TIP3     H2       HT       0.417000       1.00800           0
     30407 TIP3     4345     TIP3     OH2      OT      -0.834000       15.9994           0
     30408 TIP3     4345     TIP3     H1       HT       0.417000       1.00800           0
     30409 TIP3     4345     TIP3     H2       HT       0.417000       1.00800           0
     30410 TIP3     4346     TIP3     OH2      OT      -0.834000       15.9994           0
     30411 TIP3     4346     TIP3     H1       HT       0.417000       1.00800           0
     30412 TIP3     4346     TIP3     H2       HT       0.417000       1.00800           0
     30413 TIP3     4347     TIP3     OH2      OT      -0.834000       15.9994           0
     30414 TIP3     4347     TIP3     H1       HT       0.417000       1.00800           0
     30415 TIP3     4347     TIP3     H2       HT       0.417000       1.00800           0
     30416 TIP3     4348     TIP3     OH2      OT      -0.834000       15.9994           0
     30417 TIP3     4348     TIP3     H1       HT       0.417000       1.00800           0
     30418 TIP3     4348     TIP3     H2       HT       0.417000       1.00800           0
     30419 TIP3     4349     TIP3     OH2      OT      -0.834000       15.9994           0
     30420 TIP3     4349     TIP3     H1       HT       0.417000       1.00800           0
     30421 TIP3     4349     TIP3     H2       HT       0.417000       1.00800           0
     30422 TIP3     4350     TIP3     OH2      OT      -0.834000       15.9994           0
     30423 TIP3     4350     TIP3     H1       HT       0.417000       1.00800           0
     30424 TIP3     4350     TIP3     H2       HT       0.417000       1.00800           0
     30425 TIP3     4351     TIP3     OH2      OT      -0.834000       15.9994           0
     30426 TIP3     4351     TIP3     H1       HT       0.417000       1.00800           0
     30427 TIP3     4351     TIP3     H2       HT       0.417000       1.00800           0
     30428 TIP3     4352     TIP3     OH2      OT      -0.834000       15.9994           0
     30429 TIP3     4352     TIP3     H1       HT       0.417000       1.00800           0
     30430 TIP3     4352     TIP3     H2       HT       0.417000       1.00800           0
     30431 TIP3     4353     TIP3     OH2      OT      -0.834000       15.9994           0
     30432 TIP3     4353     TIP3     H1       HT       0.417000       1.00800           0
     30433 TIP3     4353     TIP3     H2       HT       0.417000       1.00800           0
     30434 TIP3     4354     TIP3     OH2      OT      -0.834000       15.9994           0
     30435 TIP3     4354     TIP3     H1       HT       0.417000       1.00800           0
     30436 TIP3     4354     TIP3     H2       HT       0.417000       1.00800           0
     30437 TIP3     4355     TIP3     OH2      OT      -0.834000       15.9994           0
     30438 TIP3     4355     TIP3     H1       HT       0.417000       1.00800           0
     30439 TIP3     4355     TIP3     H2       HT       0.417000       1.00800           0
     30440 TIP3     4356     TIP3     OH2      OT      -0.834000       15.9994           0
     30441 TIP3     4356     TIP3     H1       HT       0.417000       1.00800           0
     30442 TIP3     4356     TIP3     H2       HT       0.417000       1.00800           0
     30443 TIP3     4357     TIP3     OH2      OT      -0.834000       15.9994           0
     30444 TIP3     4357     TIP3     H1       HT       0.417000       1.00800           0
     30445 TIP3     4357     TIP3     H2       HT       0.417000       1.00800           0
     30446 TIP3     4358     TIP3     OH2      OT      -0.834000       15.9994           0
     30447 TIP3     4358     TIP3     H1       HT       0.417000       1.00800           0
     30448 TIP3     4358     TIP3     H2       HT       0.417000       1.00800           0
     30449 TIP3     4359     TIP3     OH2      OT      -0.834000       15.9994           0
     30450 TIP3     4359     TIP3     H1       HT       0.417000       1.00800           0
     30451 TIP3     4359     TIP3     H2       HT       0.417000       1.00800           0
     30452 TIP3     4360     TIP3     OH2      OT      -0.834000       15.9994           0
     30453 TIP3     4360     TIP3     H1       HT       0.417000       1.00800           0
     30454 TIP3     4360     TIP3     H2       HT       0.417000       1.00800           0
     30455 TIP3     4361     TIP3     OH2      OT      -0.834000       15.9994           0
     30456 TIP3     4361     TIP3     H1       HT       0.417000       1.00800           0
     30457 TIP3     4361     TIP3     H2       HT       0.417000       1.00800           0
     30458 TIP3     4362     TIP3     OH2      OT      -0.834000       15.9994           0
     30459 TIP3     4362     TIP3     H1       HT       0.417000       1.00800           0
     30460 TIP3     4362     TIP3     H2       HT       0.417000       1.00800           0
     30461 TIP3     4363     TIP3     OH2      OT      -0.834000       15.9994           0
     30462 TIP3     4363     TIP3     H1       HT       0.417000       1.00800           0
     30463 TIP3     4363     TIP3     H2       HT       0.417000       1.00800           0
     30464 TIP3     4364     TIP3     OH2      OT      -0.834000       15.9994           0
     30465 TIP3     4364     TIP3     H1       HT       0.417000       1.00800           0
     30466 TIP3     4364     TIP3     H2       HT       0.417000       1.00800           0
     30467 TIP3     4365     TIP3     OH2      OT      -0.834000       15.9994           0
     30468 TIP3     4365     TIP3     H1       HT       0.417000       1.00800           0
     30469 TIP3     4365     TIP3     H2       HT       0.417000       1.00800           0
     30470 TIP3     4366     TIP3     OH2      OT      -0.834000       15.9994           0
     30471 TIP3     4366     TIP3     H1       HT       0.417000       1.00800           0
     30472 TIP3     4366     TIP3     H2       HT       0.417000       1.00800           0
     30473 TIP3     4367     TIP3     OH2      OT      -0.834000       15.9994           0
     30474 TIP3     4367     TIP3     H1       HT       0.417000       1.00800           0
     30475 TIP3     4367     TIP3     H2       HT       0.417000       1.00800           0
     30476 TIP3     4368     TIP3     OH2      OT      -0.834000       15.9994           0
     30477 TIP3     4368     TIP3     H1       HT       0.417000       1.00800           0
     30478 TIP3     4368     TIP3     H2       HT       0.417000       1.00800           0
     30479 TIP3     4369     TIP3     OH2      OT      -0.834000       15.9994           0
     30480 TIP3     4369     TIP3     H1       HT       0.417000       1.00800           0
     30481 TIP3     4369     TIP3     H2       HT       0.417000       1.00800           0
     30482 TIP3     4370     TIP3     OH2      OT      -0.834000       15.9994           0
     30483 TIP3     4370     TIP3     H1       HT       0.417000       1.00800           0
     30484 TIP3     4370     TIP3     H2       HT       0.417000       1.00800           0
     30485 TIP3     4371     TIP3     OH2      OT      -0.834000       15.9994           0
     30486 TIP3     4371     TIP3     H1       HT       0.417000       1.00800           0
     30487 TIP3     4371     TIP3     H2       HT       0.417000       1.00800           0
     30488 TIP3     4372     TIP3     OH2      OT      -0.834000       15.9994           0
     30489 TIP3     4372     TIP3     H1       HT       0.417000       1.00800           0
     30490 TIP3     4372     TIP3     H2       HT       0.417000       1.00800           0
     30491 TIP3     4373     TIP3     OH2      OT      -0.834000       15.9994           0
     30492 TIP3     4373     TIP3     H1       HT       0.417000       1.00800           0
     30493 TIP3     4373     TIP3     H2       HT       0.417000       1.00800           0
     30494 TIP3     4374     TIP3     OH2      OT      -0.834000       15.9994           0
     30495 TIP3     4374     TIP3     H1       HT       0.417000       1.00800           0
     30496 TIP3     4374     TIP3     H2       HT       0.417000       1.00800           0
     30497 TIP3     4375     TIP3     OH2      OT      -0.834000       15.9994           0
     30498 TIP3     4375     TIP3     H1       HT       0.417000       1.00800           0
     30499 TIP3     4375     TIP3     H2       HT       0.417000       1.00800           0
     30500 TIP3     4376     TIP3     OH2      OT      -0.834000       15.9994           0
     30501 TIP3     4376     TIP3     H1       HT       0.417000       1.00800           0
     30502 TIP3     4376     TIP3     H2       HT       0.417000       1.00800           0
     30503 TIP3     4377     TIP3     OH2      OT      -0.834000       15.9994           0
     30504 TIP3     4377     TIP3     H1       HT       0.417000       1.00800           0
     30505 TIP3     4377     TIP3     H2       HT       0.417000       1.00800           0
     30506 TIP3     4378     TIP3     OH2      OT      -0.834000       15.9994           0
     30507 TIP3     4378     TIP3     H1       HT       0.417000       1.00800           0
     30508 TIP3     4378     TIP3     H2       HT       0.417000       1.00800           0
     30509 TIP3     4379     TIP3     OH2      OT      -0.834000       15.9994           0
     30510 TIP3     4379     TIP3     H1       HT       0.417000       1.00800           0
     30511 TIP3     4379     TIP3     H2       HT       0.417000       1.00800           0
     30512 TIP3     4380     TIP3     OH2      OT      -0.834000       15.9994           0
     30513 TIP3     4380     TIP3     H1       HT       0.417000       1.00800           0
     30514 TIP3     4380     TIP3     H2       HT       0.417000       1.00800           0
     30515 TIP3     4381     TIP3     OH2      OT      -0.834000       15.9994           0
     30516 TIP3     4381     TIP3     H1       HT       0.417000       1.00800           0
     30517 TIP3     4381     TIP3     H2       HT       0.417000       1.00800           0
     30518 TIP3     4382     TIP3     OH2      OT      -0.834000       15.9994           0
     30519 TIP3     4382     TIP3     H1       HT       0.417000       1.00800           0
     30520 TIP3     4382     TIP3     H2       HT       0.417000       1.00800           0
     30521 TIP3     4383     TIP3     OH2      OT      -0.834000       15.9994           0
     30522 TIP3     4383     TIP3     H1       HT       0.417000       1.00800           0
     30523 TIP3     4383     TIP3     H2       HT       0.417000       1.00800           0
     30524 TIP3     4384     TIP3     OH2      OT      -0.834000       15.9994           0
     30525 TIP3     4384     TIP3     H1       HT       0.417000       1.00800           0
     30526 TIP3     4384     TIP3     H2       HT       0.417000       1.00800           0
     30527 TIP3     4385     TIP3     OH2      OT      -0.834000       15.9994           0
     30528 TIP3     4385     TIP3     H1       HT       0.417000       1.00800           0
     30529 TIP3     4385     TIP3     H2       HT       0.417000       1.00800           0
     30530 TIP3     4386     TIP3     OH2      OT      -0.834000       15.9994           0
     30531 TIP3     4386     TIP3     H1       HT       0.417000       1.00800           0
     30532 TIP3     4386     TIP3     H2       HT       0.417000       1.00800           0
     30533 TIP3     4387     TIP3     OH2      OT      -0.834000       15.9994           0
     30534 TIP3     4387     TIP3     H1       HT       0.417000       1.00800           0
     30535 TIP3     4387     TIP3     H2       HT       0.417000       1.00800           0
     30536 TIP3     4388     TIP3     OH2      OT      -0.834000       15.9994           0
     30537 TIP3     4388     TIP3     H1       HT       0.417000       1.00800           0
     30538 TIP3     4388     TIP3     H2       HT       0.417000       1.00800           0
     30539 TIP3     4389     TIP3     OH2      OT      -0.834000       15.9994           0
     30540 TIP3     4389     TIP3     H1       HT       0.417000       1.00800           0
     30541 TIP3     4389     TIP3     H2       HT       0.417000       1.00800           0
     30542 TIP3     4390     TIP3     OH2      OT      -0.834000       15.9994           0
     30543 TIP3     4390     TIP3     H1       HT       0.417000       1.00800           0
     30544 TIP3     4390     TIP3     H2       HT       0.417000       1.00800           0
     30545 TIP3     4391     TIP3     OH2      OT      -0.834000       15.9994           0
     30546 TIP3     4391     TIP3     H1       HT       0.417000       1.00800           0
     30547 TIP3     4391     TIP3     H2       HT       0.417000       1.00800           0
     30548 TIP3     4392     TIP3     OH2      OT      -0.834000       15.9994           0
     30549 TIP3     4392     TIP3     H1       HT       0.417000       1.00800           0
     30550 TIP3     4392     TIP3     H2       HT       0.417000       1.00800           0
     30551 TIP3     4393     TIP3     OH2      OT      -0.834000       15.9994           0
     30552 TIP3     4393     TIP3     H1       HT       0.417000       1.00800           0
     30553 TIP3     4393     TIP3     H2       HT       0.417000       1.00800           0
     30554 TIP3     4394     TIP3     OH2      OT      -0.834000       15.9994           0
     30555 TIP3     4394     TIP3     H1       HT       0.417000       1.00800           0
     30556 TIP3     4394     TIP3     H2       HT       0.417000       1.00800           0
     30557 TIP3     4395     TIP3     OH2      OT      -0.834000       15.9994           0
     30558 TIP3     4395     TIP3     H1       HT       0.417000       1.00800           0
     30559 TIP3     4395     TIP3     H2       HT       0.417000       1.00800           0
     30560 TIP3     4396     TIP3     OH2      OT      -0.834000       15.9994           0
     30561 TIP3     4396     TIP3     H1       HT       0.417000       1.00800           0
     30562 TIP3     4396     TIP3     H2       HT       0.417000       1.00800           0
     30563 TIP3     4397     TIP3     OH2      OT      -0.834000       15.9994           0
     30564 TIP3     4397     TIP3     H1       HT       0.417000       1.00800           0
     30565 TIP3     4397     TIP3     H2       HT       0.417000       1.00800           0
     30566 TIP3     4398     TIP3     OH2      OT      -0.834000       15.9994           0
     30567 TIP3     4398     TIP3     H1       HT       0.417000       1.00800           0
     30568 TIP3     4398     TIP3     H2       HT       0.417000       1.00800           0
     30569 TIP3     4399     TIP3     OH2      OT      -0.834000       15.9994           0
     30570 TIP3     4399     TIP3     H1       HT       0.417000       1.00800           0
     30571 TIP3     4399     TIP3     H2       HT       0.417000       1.00800           0
     30572 TIP3     4400     TIP3     OH2      OT      -0.834000       15.9994           0
     30573 TIP3     4400     TIP3     H1       HT       0.417000       1.00800           0
     30574 TIP3     4400     TIP3     H2       HT       0.417000       1.00800           0
     30575 TIP3     4401     TIP3     OH2      OT      -0.834000       15.9994           0
     30576 TIP3     4401     TIP3     H1       HT       0.417000       1.00800           0
     30577 TIP3     4401     TIP3     H2       HT       0.417000       1.00800           0
     30578 TIP3     4402     TIP3     OH2      OT      -0.834000       15.9994           0
     30579 TIP3     4402     TIP3     H1       HT       0.417000       1.00800           0
     30580 TIP3     4402     TIP3     H2       HT       0.417000       1.00800           0
     30581 TIP3     4403     TIP3     OH2      OT      -0.834000       15.9994           0
     30582 TIP3     4403     TIP3     H1       HT       0.417000       1.00800           0
     30583 TIP3     4403     TIP3     H2       HT       0.417000       1.00800           0
     30584 TIP3     4404     TIP3     OH2      OT      -0.834000       15.9994           0
     30585 TIP3     4404     TIP3     H1       HT       0.417000       1.00800           0
     30586 TIP3     4404     TIP3     H2       HT       0.417000       1.00800           0
     30587 TIP3     4405     TIP3     OH2      OT      -0.834000       15.9994           0
     30588 TIP3     4405     TIP3     H1       HT       0.417000       1.00800           0
     30589 TIP3     4405     TIP3     H2       HT       0.417000       1.00800           0
     30590 TIP3     4406     TIP3     OH2      OT      -0.834000       15.9994           0
     30591 TIP3     4406     TIP3     H1       HT       0.417000       1.00800           0
     30592 TIP3     4406     TIP3     H2       HT       0.417000       1.00800           0
     30593 TIP3     4407     TIP3     OH2      OT      -0.834000       15.9994           0
     30594 TIP3     4407     TIP3     H1       HT       0.417000       1.00800           0
     30595 TIP3     4407     TIP3     H2       HT       0.417000       1.00800           0
     30596 TIP3     4408     TIP3     OH2      OT      -0.834000       15.9994           0
     30597 TIP3     4408     TIP3     H1       HT       0.417000       1.00800           0
     30598 TIP3     4408     TIP3     H2       HT       0.417000       1.00800           0
     30599 TIP3     4409     TIP3     OH2      OT      -0.834000       15.9994           0
     30600 TIP3     4409     TIP3     H1       HT       0.417000       1.00800           0
     30601 TIP3     4409     TIP3     H2       HT       0.417000       1.00800           0
     30602 TIP3     4410     TIP3     OH2      OT      -0.834000       15.9994           0
     30603 TIP3     4410     TIP3     H1       HT       0.417000       1.00800           0
     30604 TIP3     4410     TIP3     H2       HT       0.417000       1.00800           0
     30605 TIP3     4411     TIP3     OH2      OT      -0.834000       15.9994           0
     30606 TIP3     4411     TIP3     H1       HT       0.417000       1.00800           0
     30607 TIP3     4411     TIP3     H2       HT       0.417000       1.00800           0
     30608 TIP3     4412     TIP3     OH2      OT      -0.834000       15.9994           0
     30609 TIP3     4412     TIP3     H1       HT       0.417000       1.00800           0
     30610 TIP3     4412     TIP3     H2       HT       0.417000       1.00800           0
     30611 TIP3     4413     TIP3     OH2      OT      -0.834000       15.9994           0
     30612 TIP3     4413     TIP3     H1       HT       0.417000       1.00800           0
     30613 TIP3     4413     TIP3     H2       HT       0.417000       1.00800           0
     30614 TIP3     4414     TIP3     OH2      OT      -0.834000       15.9994           0
     30615 TIP3     4414     TIP3     H1       HT       0.417000       1.00800           0
     30616 TIP3     4414     TIP3     H2       HT       0.417000       1.00800           0
     30617 TIP3     4415     TIP3     OH2      OT      -0.834000       15.9994           0
     30618 TIP3     4415     TIP3     H1       HT       0.417000       1.00800           0
     30619 TIP3     4415     TIP3     H2       HT       0.417000       1.00800           0
     30620 TIP3     4416     TIP3     OH2      OT      -0.834000       15.9994           0
     30621 TIP3     4416     TIP3     H1       HT       0.417000       1.00800           0
     30622 TIP3     4416     TIP3     H2       HT       0.417000       1.00800           0
     30623 TIP3     4417     TIP3     OH2      OT      -0.834000       15.9994           0
     30624 TIP3     4417     TIP3     H1       HT       0.417000       1.00800           0
     30625 TIP3     4417     TIP3     H2       HT       0.417000       1.00800           0
     30626 TIP3     4418     TIP3     OH2      OT      -0.834000       15.9994           0
     30627 TIP3     4418     TIP3     H1       HT       0.417000       1.00800           0
     30628 TIP3     4418     TIP3     H2       HT       0.417000       1.00800           0
     30629 TIP3     4419     TIP3     OH2      OT      -0.834000       15.9994           0
     30630 TIP3     4419     TIP3     H1       HT       0.417000       1.00800           0
     30631 TIP3     4419     TIP3     H2       HT       0.417000       1.00800           0
     30632 TIP3     4420     TIP3     OH2      OT      -0.834000       15.9994           0
     30633 TIP3     4420     TIP3     H1       HT       0.417000       1.00800           0
     30634 TIP3     4420     TIP3     H2       HT       0.417000       1.00800           0
     30635 TIP3     4421     TIP3     OH2      OT      -0.834000       15.9994           0
     30636 TIP3     4421     TIP3     H1       HT       0.417000       1.00800           0
     30637 TIP3     4421     TIP3     H2       HT       0.417000       1.00800           0
     30638 TIP3     4422     TIP3     OH2      OT      -0.834000       15.9994           0
     30639 TIP3     4422     TIP3     H1       HT       0.417000       1.00800           0
     30640 TIP3     4422     TIP3     H2       HT       0.417000       1.00800           0
     30641 TIP3     4423     TIP3     OH2      OT      -0.834000       15.9994           0
     30642 TIP3     4423     TIP3     H1       HT       0.417000       1.00800           0
     30643 TIP3     4423     TIP3     H2       HT       0.417000       1.00800           0
     30644 TIP3     4424     TIP3     OH2      OT      -0.834000       15.9994           0
     30645 TIP3     4424     TIP3     H1       HT       0.417000       1.00800           0
     30646 TIP3     4424     TIP3     H2       HT       0.417000       1.00800           0
     30647 TIP3     4425     TIP3     OH2      OT      -0.834000       15.9994           0
     30648 TIP3     4425     TIP3     H1       HT       0.417000       1.00800           0
     30649 TIP3     4425     TIP3     H2       HT       0.417000       1.00800           0
     30650 TIP3     4426     TIP3     OH2      OT      -0.834000       15.9994           0
     30651 TIP3     4426     TIP3     H1       HT       0.417000       1.00800           0
     30652 TIP3     4426     TIP3     H2       HT       0.417000       1.00800           0
     30653 TIP3     4427     TIP3     OH2      OT      -0.834000       15.9994           0
     30654 TIP3     4427     TIP3     H1       HT       0.417000       1.00800           0
     30655 TIP3     4427     TIP3     H2       HT       0.417000       1.00800           0
     30656 TIP3     4428     TIP3     OH2      OT      -0.834000       15.9994           0
     30657 TIP3     4428     TIP3     H1       HT       0.417000       1.00800           0
     30658 TIP3     4428     TIP3     H2       HT       0.417000       1.00800           0
     30659 TIP3     4429     TIP3     OH2      OT      -0.834000       15.9994           0
     30660 TIP3     4429     TIP3     H1       HT       0.417000       1.00800           0
     30661 TIP3     4429     TIP3     H2       HT       0.417000       1.00800           0
     30662 TIP3     4430     TIP3     OH2      OT      -0.834000       15.9994           0
     30663 TIP3     4430     TIP3     H1       HT       0.417000       1.00800           0
     30664 TIP3     4430     TIP3     H2       HT       0.417000       1.00800           0
     30665 TIP3     4431     TIP3     OH2      OT      -0.834000       15.9994           0
     30666 TIP3     4431     TIP3     H1       HT       0.417000       1.00800           0
     30667 TIP3     4431     TIP3     H2       HT       0.417000       1.00800           0
     30668 TIP3     4432     TIP3     OH2      OT      -0.834000       15.9994           0
     30669 TIP3     4432     TIP3     H1       HT       0.417000       1.00800           0
     30670 TIP3     4432     TIP3     H2       HT       0.417000       1.00800           0
     30671 TIP3     4433     TIP3     OH2      OT      -0.834000       15.9994           0
     30672 TIP3     4433     TIP3     H1       HT       0.417000       1.00800           0
     30673 TIP3     4433     TIP3     H2       HT       0.417000       1.00800           0
     30674 TIP3     4434     TIP3     OH2      OT      -0.834000       15.9994           0
     30675 TIP3     4434     TIP3     H1       HT       0.417000       1.00800           0
     30676 TIP3     4434     TIP3     H2       HT       0.417000       1.00800           0
     30677 TIP3     4435     TIP3     OH2      OT      -0.834000       15.9994           0
     30678 TIP3     4435     TIP3     H1       HT       0.417000       1.00800           0
     30679 TIP3     4435     TIP3     H2       HT       0.417000       1.00800           0
     30680 TIP3     4436     TIP3     OH2      OT      -0.834000       15.9994           0
     30681 TIP3     4436     TIP3     H1       HT       0.417000       1.00800           0
     30682 TIP3     4436     TIP3     H2       HT       0.417000       1.00800           0
     30683 TIP3     4437     TIP3     OH2      OT      -0.834000       15.9994           0
     30684 TIP3     4437     TIP3     H1       HT       0.417000       1.00800           0
     30685 TIP3     4437     TIP3     H2       HT       0.417000       1.00800           0
     30686 TIP3     4438     TIP3     OH2      OT      -0.834000       15.9994           0
     30687 TIP3     4438     TIP3     H1       HT       0.417000       1.00800           0
     30688 TIP3     4438     TIP3     H2       HT       0.417000       1.00800           0
     30689 TIP3     4439     TIP3     OH2      OT      -0.834000       15.9994           0
     30690 TIP3     4439     TIP3     H1       HT       0.417000       1.00800           0
     30691 TIP3     4439     TIP3     H2       HT       0.417000       1.00800           0
     30692 TIP3     4440     TIP3     OH2      OT      -0.834000       15.9994           0
     30693 TIP3     4440     TIP3     H1       HT       0.417000       1.00800           0
     30694 TIP3     4440     TIP3     H2       HT       0.417000       1.00800           0
     30695 TIP3     4441     TIP3     OH2      OT      -0.834000       15.9994           0
     30696 TIP3     4441     TIP3     H1       HT       0.417000       1.00800           0
     30697 TIP3     4441     TIP3     H2       HT       0.417000       1.00800           0
     30698 TIP3     4442     TIP3     OH2      OT      -0.834000       15.9994           0
     30699 TIP3     4442     TIP3     H1       HT       0.417000       1.00800           0
     30700 TIP3     4442     TIP3     H2       HT       0.417000       1.00800           0
     30701 TIP3     4443     TIP3     OH2      OT      -0.834000       15.9994           0
     30702 TIP3     4443     TIP3     H1       HT       0.417000       1.00800           0
     30703 TIP3     4443     TIP3     H2       HT       0.417000       1.00800           0
     30704 TIP3     4444     TIP3     OH2      OT      -0.834000       15.9994           0
     30705 TIP3     4444     TIP3     H1       HT       0.417000       1.00800           0
     30706 TIP3     4444     TIP3     H2       HT       0.417000       1.00800           0
     30707 TIP3     4445     TIP3     OH2      OT      -0.834000       15.9994           0
     30708 TIP3     4445     TIP3     H1       HT       0.417000       1.00800           0
     30709 TIP3     4445     TIP3     H2       HT       0.417000       1.00800           0
     30710 TIP3     4446     TIP3     OH2      OT      -0.834000       15.9994           0
     30711 TIP3     4446     TIP3     H1       HT       0.417000       1.00800           0
     30712 TIP3     4446     TIP3     H2       HT       0.417000       1.00800           0
     30713 TIP3     4447     TIP3     OH2      OT      -0.834000       15.9994           0
     30714 TIP3     4447     TIP3     H1       HT       0.417000       1.00800           0
     30715 TIP3     4447     TIP3     H2       HT       0.417000       1.00800           0
     30716 TIP3     4448     TIP3     OH2      OT      -0.834000       15.9994           0
     30717 TIP3     4448     TIP3     H1       HT       0.417000       1.00800           0
     30718 TIP3     4448     TIP3     H2       HT       0.417000       1.00800           0
     30719 TIP3     4449     TIP3     OH2      OT      -0.834000       15.9994           0
     30720 TIP3     4449     TIP3     H1       HT       0.417000       1.00800           0
     30721 TIP3     4449     TIP3     H2       HT       0.417000       1.00800           0
     30722 TIP3     4450     TIP3     OH2      OT      -0.834000       15.9994           0
     30723 TIP3     4450     TIP3     H1       HT       0.417000       1.00800           0
     30724 TIP3     4450     TIP3     H2       HT       0.417000       1.00800           0
     30725 TIP3     4451     TIP3     OH2      OT      -0.834000       15.9994           0
     30726 TIP3     4451     TIP3     H1       HT       0.417000       1.00800           0
     30727 TIP3     4451     TIP3     H2       HT       0.417000       1.00800           0
     30728 TIP3     4452     TIP3     OH2      OT      -0.834000       15.9994           0
     30729 TIP3     4452     TIP3     H1       HT       0.417000       1.00800           0
     30730 TIP3     4452     TIP3     H2       HT       0.417000       1.00800           0
     30731 TIP3     4453     TIP3     OH2      OT      -0.834000       15.9994           0
     30732 TIP3     4453     TIP3     H1       HT       0.417000       1.00800           0
     30733 TIP3     4453     TIP3     H2       HT       0.417000       1.00800           0
     30734 TIP3     4454     TIP3     OH2      OT      -0.834000       15.9994           0
     30735 TIP3     4454     TIP3     H1       HT       0.417000       1.00800           0
     30736 TIP3     4454     TIP3     H2       HT       0.417000       1.00800           0
     30737 TIP3     4455     TIP3     OH2      OT      -0.834000       15.9994           0
     30738 TIP3     4455     TIP3     H1       HT       0.417000       1.00800           0
     30739 TIP3     4455     TIP3     H2       HT       0.417000       1.00800           0
     30740 TIP3     4456     TIP3     OH2      OT      -0.834000       15.9994           0
     30741 TIP3     4456     TIP3     H1       HT       0.417000       1.00800           0
     30742 TIP3     4456     TIP3     H2       HT       0.417000       1.00800           0
     30743 TIP3     4457     TIP3     OH2      OT      -0.834000       15.9994           0
     30744 TIP3     4457     TIP3     H1       HT       0.417000       1.00800           0
     30745 TIP3     4457     TIP3     H2       HT       0.417000       1.00800           0
     30746 TIP3     4458     TIP3     OH2      OT      -0.834000       15.9994           0
     30747 TIP3     4458     TIP3     H1       HT       0.417000       1.00800           0
     30748 TIP3     4458     TIP3     H2       HT       0.417000       1.00800           0
     30749 TIP3     4459     TIP3     OH2      OT      -0.834000       15.9994           0
     30750 TIP3     4459     TIP3     H1       HT       0.417000       1.00800           0
     30751 TIP3     4459     TIP3     H2       HT       0.417000       1.00800           0
     30752 TIP3     4460     TIP3     OH2      OT      -0.834000       15.9994           0
     30753 TIP3     4460     TIP3     H1       HT       0.417000       1.00800           0
     30754 TIP3     4460     TIP3     H2       HT       0.417000       1.00800           0
     30755 TIP3     4461     TIP3     OH2      OT      -0.834000       15.9994           0
     30756 TIP3     4461     TIP3     H1       HT       0.417000       1.00800           0
     30757 TIP3     4461     TIP3     H2       HT       0.417000       1.00800           0
     30758 TIP3     4462     TIP3     OH2      OT      -0.834000       15.9994           0
     30759 TIP3     4462     TIP3     H1       HT       0.417000       1.00800           0
     30760 TIP3     4462     TIP3     H2       HT       0.417000       1.00800           0
     30761 TIP3     4463     TIP3     OH2      OT      -0.834000       15.9994           0
     30762 TIP3     4463     TIP3     H1       HT       0.417000       1.00800           0
     30763 TIP3     4463     TIP3     H2       HT       0.417000       1.00800           0
     30764 TIP3     4464     TIP3     OH2      OT      -0.834000       15.9994           0
     30765 TIP3     4464     TIP3     H1       HT       0.417000       1.00800           0
     30766 TIP3     4464     TIP3     H2       HT       0.417000       1.00800           0
     30767 TIP3     4465     TIP3     OH2      OT      -0.834000       15.9994           0
     30768 TIP3     4465     TIP3     H1       HT       0.417000       1.00800           0
     30769 TIP3     4465     TIP3     H2       HT       0.417000       1.00800           0
     30770 TIP3     4466     TIP3     OH2      OT      -0.834000       15.9994           0
     30771 TIP3     4466     TIP3     H1       HT       0.417000       1.00800           0
     30772 TIP3     4466     TIP3     H2       HT       0.417000       1.00800           0
     30773 TIP3     4467     TIP3     OH2      OT      -0.834000       15.9994           0
     30774 TIP3     4467     TIP3     H1       HT       0.417000       1.00800           0
     30775 TIP3     4467     TIP3     H2       HT       0.417000       1.00800           0
     30776 TIP3     4468     TIP3     OH2      OT      -0.834000       15.9994           0
     30777 TIP3     4468     TIP3     H1       HT       0.417000       1.00800           0
     30778 TIP3     4468     TIP3     H2       HT       0.417000       1.00800           0
     30779 TIP3     4469     TIP3     OH2      OT      -0.834000       15.9994           0
     30780 TIP3     4469     TIP3     H1       HT       0.417000       1.00800           0
     30781 TIP3     4469     TIP3     H2       HT       0.417000       1.00800           0
     30782 TIP3     4470     TIP3     OH2      OT      -0.834000       15.9994           0
     30783 TIP3     4470     TIP3     H1       HT       0.417000       1.00800           0
     30784 TIP3     4470     TIP3     H2       HT       0.417000       1.00800           0
     30785 TIP3     4471     TIP3     OH2      OT      -0.834000       15.9994           0
     30786 TIP3     4471     TIP3     H1       HT       0.417000       1.00800           0
     30787 TIP3     4471     TIP3     H2       HT       0.417000       1.00800           0
     30788 TIP3     4472     TIP3     OH2      OT      -0.834000       15.9994           0
     30789 TIP3     4472     TIP3     H1       HT       0.417000       1.00800           0
     30790 TIP3     4472     TIP3     H2       HT       0.417000       1.00800           0
     30791 TIP3     4473     TIP3     OH2      OT      -0.834000       15.9994           0
     30792 TIP3     4473     TIP3     H1       HT       0.417000       1.00800           0
     30793 TIP3     4473     TIP3     H2       HT       0.417000       1.00800           0
     30794 TIP3     4474     TIP3     OH2      OT      -0.834000       15.9994           0
     30795 TIP3     4474     TIP3     H1       HT       0.417000       1.00800           0
     30796 TIP3     4474     TIP3     H2       HT       0.417000       1.00800           0
     30797 TIP3     4475     TIP3     OH2      OT      -0.834000       15.9994           0
     30798 TIP3     4475     TIP3     H1       HT       0.417000       1.00800           0
     30799 TIP3     4475     TIP3     H2       HT       0.417000       1.00800           0
     30800 TIP3     4476     TIP3     OH2      OT      -0.834000       15.9994           0
     30801 TIP3     4476     TIP3     H1       HT       0.417000       1.00800           0
     30802 TIP3     4476     TIP3     H2       HT       0.417000       1.00800           0
     30803 TIP3     4477     TIP3     OH2      OT      -0.834000       15.9994           0
     30804 TIP3     4477     TIP3     H1       HT       0.417000       1.00800           0
     30805 TIP3     4477     TIP3     H2       HT       0.417000       1.00800           0
     30806 TIP3     4478     TIP3     OH2      OT      -0.834000       15.9994           0
     30807 TIP3     4478     TIP3     H1       HT       0.417000       1.00800           0
     30808 TIP3     4478     TIP3     H2       HT       0.417000       1.00800           0
     30809 TIP3     4479     TIP3     OH2      OT      -0.834000       15.9994           0
     30810 TIP3     4479     TIP3     H1       HT       0.417000       1.00800           0
     30811 TIP3     4479     TIP3     H2       HT       0.417000       1.00800           0
     30812 TIP3     4480     TIP3     OH2      OT      -0.834000       15.9994           0
     30813 TIP3     4480     TIP3     H1       HT       0.417000       1.00800           0
     30814 TIP3     4480     TIP3     H2       HT       0.417000       1.00800           0
     30815 TIP3     4481     TIP3     OH2      OT      -0.834000       15.9994           0
     30816 TIP3     4481     TIP3     H1       HT       0.417000       1.00800           0
     30817 TIP3     4481     TIP3     H2       HT       0.417000       1.00800           0
     30818 TIP3     4482     TIP3     OH2      OT      -0.834000       15.9994           0
     30819 TIP3     4482     TIP3     H1       HT       0.417000       1.00800           0
     30820 TIP3     4482     TIP3     H2       HT       0.417000       1.00800           0
     30821 TIP3     4483     TIP3     OH2      OT      -0.834000       15.9994           0
     30822 TIP3     4483     TIP3     H1       HT       0.417000       1.00800           0
     30823 TIP3     4483     TIP3     H2       HT       0.417000       1.00800           0
     30824 TIP3     4484     TIP3     OH2      OT      -0.834000       15.9994           0
     30825 TIP3     4484     TIP3     H1       HT       0.417000       1.00800           0
     30826 TIP3     4484     TIP3     H2       HT       0.417000       1.00800           0
     30827 TIP3     4485     TIP3     OH2      OT      -0.834000       15.9994           0
     30828 TIP3     4485     TIP3     H1       HT       0.417000       1.00800           0
     30829 TIP3     4485     TIP3     H2       HT       0.417000       1.00800           0
     30830 TIP3     4486     TIP3     OH2      OT      -0.834000       15.9994           0
     30831 TIP3     4486     TIP3     H1       HT       0.417000       1.00800           0
     30832 TIP3     4486     TIP3     H2       HT       0.417000       1.00800           0
     30833 TIP3     4487     TIP3     OH2      OT      -0.834000       15.9994           0
     30834 TIP3     4487     TIP3     H1       HT       0.417000       1.00800           0
     30835 TIP3     4487     TIP3     H2       HT       0.417000       1.00800           0
     30836 TIP3     4488     TIP3     OH2      OT      -0.834000       15.9994           0
     30837 TIP3     4488     TIP3     H1       HT       0.417000       1.00800           0
     30838 TIP3     4488     TIP3     H2       HT       0.417000       1.00800           0
     30839 TIP3     4489     TIP3     OH2      OT      -0.834000       15.9994           0
     30840 TIP3     4489     TIP3     H1       HT       0.417000       1.00800           0
     30841 TIP3     4489     TIP3     H2       HT       0.417000       1.00800           0
     30842 TIP3     4490     TIP3     OH2      OT      -0.834000       15.9994           0
     30843 TIP3     4490     TIP3     H1       HT       0.417000       1.00800           0
     30844 TIP3     4490     TIP3     H2       HT       0.417000       1.00800           0
     30845 TIP3     4491     TIP3     OH2      OT      -0.834000       15.9994           0
     30846 TIP3     4491     TIP3     H1       HT       0.417000       1.00800           0
     30847 TIP3     4491     TIP3     H2       HT       0.417000       1.00800           0
     30848 TIP3     4492     TIP3     OH2      OT      -0.834000       15.9994           0
     30849 TIP3     4492     TIP3     H1       HT       0.417000       1.00800           0
     30850 TIP3     4492     TIP3     H2       HT       0.417000       1.00800           0
     30851 TIP3     4493     TIP3     OH2      OT      -0.834000       15.9994           0
     30852 TIP3     4493     TIP3     H1       HT       0.417000       1.00800           0
     30853 TIP3     4493     TIP3     H2       HT       0.417000       1.00800           0
     30854 TIP3     4494     TIP3     OH2      OT      -0.834000       15.9994           0
     30855 TIP3     4494     TIP3     H1       HT       0.417000       1.00800           0
     30856 TIP3     4494     TIP3     H2       HT       0.417000       1.00800           0
     30857 TIP3     4495     TIP3     OH2      OT      -0.834000       15.9994           0
     30858 TIP3     4495     TIP3     H1       HT       0.417000       1.00800           0
     30859 TIP3     4495     TIP3     H2       HT       0.417000       1.00800           0
     30860 TIP3     4496     TIP3     OH2      OT      -0.834000       15.9994           0
     30861 TIP3     4496     TIP3     H1       HT       0.417000       1.00800           0
     30862 TIP3     4496     TIP3     H2       HT       0.417000       1.00800           0
     30863 TIP3     4497     TIP3     OH2      OT      -0.834000       15.9994           0
     30864 TIP3     4497     TIP3     H1       HT       0.417000       1.00800           0
     30865 TIP3     4497     TIP3     H2       HT       0.417000       1.00800           0
     30866 TIP3     4498     TIP3     OH2      OT      -0.834000       15.9994           0
     30867 TIP3     4498     TIP3     H1       HT       0.417000       1.00800           0
     30868 TIP3     4498     TIP3     H2       HT       0.417000       1.00800           0
     30869 TIP3     4499     TIP3     OH2      OT      -0.834000       15.9994           0
     30870 TIP3     4499     TIP3     H1       HT       0.417000       1.00800           0
     30871 TIP3     4499     TIP3     H2       HT       0.417000       1.00800           0
     30872 TIP3     4500     TIP3     OH2      OT      -0.834000       15.9994           0
     30873 TIP3     4500     TIP3     H1       HT       0.417000       1.00800           0
     30874 TIP3     4500     TIP3     H2       HT       0.417000       1.00800           0
     30875 TIP3     4501     TIP3     OH2      OT      -0.834000       15.9994           0
     30876 TIP3     4501     TIP3     H1       HT       0.417000       1.00800           0
     30877 TIP3     4501     TIP3     H2       HT       0.417000       1.00800           0
     30878 TIP3     4502     TIP3     OH2      OT      -0.834000       15.9994           0
     30879 TIP3     4502     TIP3     H1       HT       0.417000       1.00800           0
     30880 TIP3     4502     TIP3     H2       HT       0.417000       1.00800           0
     30881 TIP3     4503     TIP3     OH2      OT      -0.834000       15.9994           0
     30882 TIP3     4503     TIP3     H1       HT       0.417000       1.00800           0
     30883 TIP3     4503     TIP3     H2       HT       0.417000       1.00800           0
     30884 TIP3     4504     TIP3     OH2      OT      -0.834000       15.9994           0
     30885 TIP3     4504     TIP3     H1       HT       0.417000       1.00800           0
     30886 TIP3     4504     TIP3     H2       HT       0.417000       1.00800           0
     30887 TIP3     4505     TIP3     OH2      OT      -0.834000       15.9994           0
     30888 TIP3     4505     TIP3     H1       HT       0.417000       1.00800           0
     30889 TIP3     4505     TIP3     H2       HT       0.417000       1.00800           0
     30890 TIP3     4506     TIP3     OH2      OT      -0.834000       15.9994           0
     30891 TIP3     4506     TIP3     H1       HT       0.417000       1.00800           0
     30892 TIP3     4506     TIP3     H2       HT       0.417000       1.00800           0
     30893 TIP3     4507     TIP3     OH2      OT      -0.834000       15.9994           0
     30894 TIP3     4507     TIP3     H1       HT       0.417000       1.00800           0
     30895 TIP3     4507     TIP3     H2       HT       0.417000       1.00800           0
     30896 TIP3     4508     TIP3     OH2      OT      -0.834000       15.9994           0
     30897 TIP3     4508     TIP3     H1       HT       0.417000       1.00800           0
     30898 TIP3     4508     TIP3     H2       HT       0.417000       1.00800           0
     30899 TIP3     4509     TIP3     OH2      OT      -0.834000       15.9994           0
     30900 TIP3     4509     TIP3     H1       HT       0.417000       1.00800           0
     30901 TIP3     4509     TIP3     H2       HT       0.417000       1.00800           0
     30902 TIP3     4510     TIP3     OH2      OT      -0.834000       15.9994           0
     30903 TIP3     4510     TIP3     H1       HT       0.417000       1.00800           0
     30904 TIP3     4510     TIP3     H2       HT       0.417000       1.00800           0
     30905 TIP3     4511     TIP3     OH2      OT      -0.834000       15.9994           0
     30906 TIP3     4511     TIP3     H1       HT       0.417000       1.00800           0
     30907 TIP3     4511     TIP3     H2       HT       0.417000       1.00800           0
     30908 TIP3     4512     TIP3     OH2      OT      -0.834000       15.9994           0
     30909 TIP3     4512     TIP3     H1       HT       0.417000       1.00800           0
     30910 TIP3     4512     TIP3     H2       HT       0.417000       1.00800           0
     30911 TIP3     4513     TIP3     OH2      OT      -0.834000       15.9994           0
     30912 TIP3     4513     TIP3     H1       HT       0.417000       1.00800           0
     30913 TIP3     4513     TIP3     H2       HT       0.417000       1.00800           0
     30914 TIP3     4514     TIP3     OH2      OT      -0.834000       15.9994           0
     30915 TIP3     4514     TIP3     H1       HT       0.417000       1.00800           0
     30916 TIP3     4514     TIP3     H2       HT       0.417000       1.00800           0
     30917 TIP3     4515     TIP3     OH2      OT      -0.834000       15.9994           0
     30918 TIP3     4515     TIP3     H1       HT       0.417000       1.00800           0
     30919 TIP3     4515     TIP3     H2       HT       0.417000       1.00800           0
     30920 TIP3     4516     TIP3     OH2      OT      -0.834000       15.9994           0
     30921 TIP3     4516     TIP3     H1       HT       0.417000       1.00800           0
     30922 TIP3     4516     TIP3     H2       HT       0.417000       1.00800           0
     30923 TIP3     4517     TIP3     OH2      OT      -0.834000       15.9994           0
     30924 TIP3     4517     TIP3     H1       HT       0.417000       1.00800           0
     30925 TIP3     4517     TIP3     H2       HT       0.417000       1.00800           0
     30926 TIP3     4518     TIP3     OH2      OT      -0.834000       15.9994           0
     30927 TIP3     4518     TIP3     H1       HT       0.417000       1.00800           0
     30928 TIP3     4518     TIP3     H2       HT       0.417000       1.00800           0
     30929 TIP3     4519     TIP3     OH2      OT      -0.834000       15.9994           0
     30930 TIP3     4519     TIP3     H1       HT       0.417000       1.00800           0
     30931 TIP3     4519     TIP3     H2       HT       0.417000       1.00800           0
     30932 TIP3     4520     TIP3     OH2      OT      -0.834000       15.9994           0
     30933 TIP3     4520     TIP3     H1       HT       0.417000       1.00800           0
     30934 TIP3     4520     TIP3     H2       HT       0.417000       1.00800           0
     30935 TIP3     4521     TIP3     OH2      OT      -0.834000       15.9994           0
     30936 TIP3     4521     TIP3     H1       HT       0.417000       1.00800           0
     30937 TIP3     4521     TIP3     H2       HT       0.417000       1.00800           0
     30938 TIP3     4522     TIP3     OH2      OT      -0.834000       15.9994           0
     30939 TIP3     4522     TIP3     H1       HT       0.417000       1.00800           0
     30940 TIP3     4522     TIP3     H2       HT       0.417000       1.00800           0
     30941 TIP3     4523     TIP3     OH2      OT      -0.834000       15.9994           0
     30942 TIP3     4523     TIP3     H1       HT       0.417000       1.00800           0
     30943 TIP3     4523     TIP3     H2       HT       0.417000       1.00800           0
     30944 TIP3     4524     TIP3     OH2      OT      -0.834000       15.9994           0
     30945 TIP3     4524     TIP3     H1       HT       0.417000       1.00800           0
     30946 TIP3     4524     TIP3     H2       HT       0.417000       1.00800           0
     30947 TIP3     4525     TIP3     OH2      OT      -0.834000       15.9994           0
     30948 TIP3     4525     TIP3     H1       HT       0.417000       1.00800           0
     30949 TIP3     4525     TIP3     H2       HT       0.417000       1.00800           0
     30950 TIP3     4526     TIP3     OH2      OT      -0.834000       15.9994           0
     30951 TIP3     4526     TIP3     H1       HT       0.417000       1.00800           0
     30952 TIP3     4526     TIP3     H2       HT       0.417000       1.00800           0
     30953 TIP3     4527     TIP3     OH2      OT      -0.834000       15.9994           0
     30954 TIP3     4527     TIP3     H1       HT       0.417000       1.00800           0
     30955 TIP3     4527     TIP3     H2       HT       0.417000       1.00800           0
     30956 TIP3     4528     TIP3     OH2      OT      -0.834000       15.9994           0
     30957 TIP3     4528     TIP3     H1       HT       0.417000       1.00800           0
     30958 TIP3     4528     TIP3     H2       HT       0.417000       1.00800           0
     30959 TIP3     4529     TIP3     OH2      OT      -0.834000       15.9994           0
     30960 TIP3     4529     TIP3     H1       HT       0.417000       1.00800           0
     30961 TIP3     4529     TIP3     H2       HT       0.417000       1.00800           0
     30962 TIP3     4530     TIP3     OH2      OT      -0.834000       15.9994           0
     30963 TIP3     4530     TIP3     H1       HT       0.417000       1.00800           0
     30964 TIP3     4530     TIP3     H2       HT       0.417000       1.00800           0
     30965 TIP3     4531     TIP3     OH2      OT      -0.834000       15.9994           0
     30966 TIP3     4531     TIP3     H1       HT       0.417000       1.00800           0
     30967 TIP3     4531     TIP3     H2       HT       0.417000       1.00800           0
     30968 TIP3     4532     TIP3     OH2      OT      -0.834000       15.9994           0
     30969 TIP3     4532     TIP3     H1       HT       0.417000       1.00800           0
     30970 TIP3     4532     TIP3     H2       HT       0.417000       1.00800           0
     30971 TIP3     4533     TIP3     OH2      OT      -0.834000       15.9994           0
     30972 TIP3     4533     TIP3     H1       HT       0.417000       1.00800           0
     30973 TIP3     4533     TIP3     H2       HT       0.417000       1.00800           0
     30974 TIP3     4534     TIP3     OH2      OT      -0.834000       15.9994           0
     30975 TIP3     4534     TIP3     H1       HT       0.417000       1.00800           0
     30976 TIP3     4534     TIP3     H2       HT       0.417000       1.00800           0
     30977 TIP3     4535     TIP3     OH2      OT      -0.834000       15.9994           0
     30978 TIP3     4535     TIP3     H1       HT       0.417000       1.00800           0
     30979 TIP3     4535     TIP3     H2       HT       0.417000       1.00800           0
     30980 TIP3     4536     TIP3     OH2      OT      -0.834000       15.9994           0
     30981 TIP3     4536     TIP3     H1       HT       0.417000       1.00800           0
     30982 TIP3     4536     TIP3     H2       HT       0.417000       1.00800           0
     30983 TIP3     4537     TIP3     OH2      OT      -0.834000       15.9994           0
     30984 TIP3     4537     TIP3     H1       HT       0.417000       1.00800           0
     30985 TIP3     4537     TIP3     H2       HT       0.417000       1.00800           0
     30986 TIP3     4538     TIP3     OH2      OT      -0.834000       15.9994           0
     30987 TIP3     4538     TIP3     H1       HT       0.417000       1.00800           0
     30988 TIP3     4538     TIP3     H2       HT       0.417000       1.00800           0
     30989 TIP3     4539     TIP3     OH2      OT      -0.834000       15.9994           0
     30990 TIP3     4539     TIP3     H1       HT       0.417000       1.00800           0
     30991 TIP3     4539     TIP3     H2       HT       0.417000       1.00800           0
     30992 TIP3     4540     TIP3     OH2      OT      -0.834000       15.9994           0
     30993 TIP3     4540     TIP3     H1       HT       0.417000       1.00800           0
     30994 TIP3     4540     TIP3     H2       HT       0.417000       1.00800           0
     30995 TIP3     4541     TIP3     OH2      OT      -0.834000       15.9994           0
     30996 TIP3     4541     TIP3     H1       HT       0.417000       1.00800           0
     30997 TIP3     4541     TIP3     H2       HT       0.417000       1.00800           0
     30998 TIP3     4542     TIP3     OH2      OT      -0.834000       15.9994           0
     30999 TIP3     4542     TIP3     H1       HT       0.417000       1.00800           0
     31000 TIP3     4542     TIP3     H2       HT       0.417000       1.00800           0
     31001 TIP3     4543     TIP3     OH2      OT      -0.834000       15.9994           0
     31002 TIP3     4543     TIP3     H1       HT       0.417000       1.00800           0
     31003 TIP3     4543     TIP3     H2       HT       0.417000       1.00800           0
     31004 TIP3     4544     TIP3     OH2      OT      -0.834000       15.9994           0
     31005 TIP3     4544     TIP3     H1       HT       0.417000       1.00800           0
     31006 TIP3     4544     TIP3     H2       HT       0.417000       1.00800           0
     31007 TIP3     4545     TIP3     OH2      OT      -0.834000       15.9994           0
     31008 TIP3     4545     TIP3     H1       HT       0.417000       1.00800           0
     31009 TIP3     4545     TIP3     H2       HT       0.417000       1.00800           0
     31010 TIP3     4546     TIP3     OH2      OT      -0.834000       15.9994           0
     31011 TIP3     4546     TIP3     H1       HT       0.417000       1.00800           0
     31012 TIP3     4546     TIP3     H2       HT       0.417000       1.00800           0
     31013 TIP3     4547     TIP3     OH2      OT      -0.834000       15.9994           0
     31014 TIP3     4547     TIP3     H1       HT       0.417000       1.00800           0
     31015 TIP3     4547     TIP3     H2       HT       0.417000       1.00800           0
     31016 TIP3     4548     TIP3     OH2      OT      -0.834000       15.9994           0
     31017 TIP3     4548     TIP3     H1       HT       0.417000       1.00800           0
     31018 TIP3     4548     TIP3     H2       HT       0.417000       1.00800           0
     31019 TIP3     4549     TIP3     OH2      OT      -0.834000       15.9994           0
     31020 TIP3     4549     TIP3     H1       HT       0.417000       1.00800           0
     31021 TIP3     4549     TIP3     H2       HT       0.417000       1.00800           0
     31022 TIP3     4550     TIP3     OH2      OT      -0.834000       15.9994           0
     31023 TIP3     4550     TIP3     H1       HT       0.417000       1.00800           0
     31024 TIP3     4550     TIP3     H2       HT       0.417000       1.00800           0
     31025 TIP3     4551     TIP3     OH2      OT      -0.834000       15.9994           0
     31026 TIP3     4551     TIP3     H1       HT       0.417000       1.00800           0
     31027 TIP3     4551     TIP3     H2       HT       0.417000       1.00800           0
     31028 TIP3     4552     TIP3     OH2      OT      -0.834000       15.9994           0
     31029 TIP3     4552     TIP3     H1       HT       0.417000       1.00800           0
     31030 TIP3     4552     TIP3     H2       HT       0.417000       1.00800           0
     31031 TIP3     4553     TIP3     OH2      OT      -0.834000       15.9994           0
     31032 TIP3     4553     TIP3     H1       HT       0.417000       1.00800           0
     31033 TIP3     4553     TIP3     H2       HT       0.417000       1.00800           0
     31034 TIP3     4554     TIP3     OH2      OT      -0.834000       15.9994           0
     31035 TIP3     4554     TIP3     H1       HT       0.417000       1.00800           0
     31036 TIP3     4554     TIP3     H2       HT       0.417000       1.00800           0
     31037 TIP3     4555     TIP3     OH2      OT      -0.834000       15.9994           0
     31038 TIP3     4555     TIP3     H1       HT       0.417000       1.00800           0
     31039 TIP3     4555     TIP3     H2       HT       0.417000       1.00800           0
     31040 TIP3     4556     TIP3     OH2      OT      -0.834000       15.9994           0
     31041 TIP3     4556     TIP3     H1       HT       0.417000       1.00800           0
     31042 TIP3     4556     TIP3     H2       HT       0.417000       1.00800           0
     31043 TIP3     4557     TIP3     OH2      OT      -0.834000       15.9994           0
     31044 TIP3     4557     TIP3     H1       HT       0.417000       1.00800           0
     31045 TIP3     4557     TIP3     H2       HT       0.417000       1.00800           0
     31046 TIP3     4558     TIP3     OH2      OT      -0.834000       15.9994           0
     31047 TIP3     4558     TIP3     H1       HT       0.417000       1.00800           0
     31048 TIP3     4558     TIP3     H2       HT       0.417000       1.00800           0
     31049 TIP3     4559     TIP3     OH2      OT      -0.834000       15.9994           0
     31050 TIP3     4559     TIP3     H1       HT       0.417000       1.00800           0
     31051 TIP3     4559     TIP3     H2       HT       0.417000       1.00800           0
     31052 TIP3     4560     TIP3     OH2      OT      -0.834000       15.9994           0
     31053 TIP3     4560     TIP3     H1       HT       0.417000       1.00800           0
     31054 TIP3     4560     TIP3     H2       HT       0.417000       1.00800           0
     31055 TIP3     4561     TIP3     OH2      OT      -0.834000       15.9994           0
     31056 TIP3     4561     TIP3     H1       HT       0.417000       1.00800           0
     31057 TIP3     4561     TIP3     H2       HT       0.417000       1.00800           0
     31058 TIP3     4562     TIP3     OH2      OT      -0.834000       15.9994           0
     31059 TIP3     4562     TIP3     H1       HT       0.417000       1.00800           0
     31060 TIP3     4562     TIP3     H2       HT       0.417000       1.00800           0
     31061 TIP3     4563     TIP3     OH2      OT      -0.834000       15.9994           0
     31062 TIP3     4563     TIP3     H1       HT       0.417000       1.00800           0
     31063 TIP3     4563     TIP3     H2       HT       0.417000       1.00800           0
     31064 TIP3     4564     TIP3     OH2      OT      -0.834000       15.9994           0
     31065 TIP3     4564     TIP3     H1       HT       0.417000       1.00800           0
     31066 TIP3     4564     TIP3     H2       HT       0.417000       1.00800           0
     31067 TIP3     4565     TIP3     OH2      OT      -0.834000       15.9994           0
     31068 TIP3     4565     TIP3     H1       HT       0.417000       1.00800           0
     31069 TIP3     4565     TIP3     H2       HT       0.417000       1.00800           0
     31070 TIP3     4566     TIP3     OH2      OT      -0.834000       15.9994           0
     31071 TIP3     4566     TIP3     H1       HT       0.417000       1.00800           0
     31072 TIP3     4566     TIP3     H2       HT       0.417000       1.00800           0
     31073 TIP3     4567     TIP3     OH2      OT      -0.834000       15.9994           0
     31074 TIP3     4567     TIP3     H1       HT       0.417000       1.00800           0
     31075 TIP3     4567     TIP3     H2       HT       0.417000       1.00800           0
     31076 TIP3     4568     TIP3     OH2      OT      -0.834000       15.9994           0
     31077 TIP3     4568     TIP3     H1       HT       0.417000       1.00800           0
     31078 TIP3     4568     TIP3     H2       HT       0.417000       1.00800           0
     31079 TIP3     4569     TIP3     OH2      OT      -0.834000       15.9994           0
     31080 TIP3     4569     TIP3     H1       HT       0.417000       1.00800           0
     31081 TIP3     4569     TIP3     H2       HT       0.417000       1.00800           0
     31082 TIP3     4570     TIP3     OH2      OT      -0.834000       15.9994           0
     31083 TIP3     4570     TIP3     H1       HT       0.417000       1.00800           0
     31084 TIP3     4570     TIP3     H2       HT       0.417000       1.00800           0
     31085 TIP3     4571     TIP3     OH2      OT      -0.834000       15.9994           0
     31086 TIP3     4571     TIP3     H1       HT       0.417000       1.00800           0
     31087 TIP3     4571     TIP3     H2       HT       0.417000       1.00800           0
     31088 TIP3     4572     TIP3     OH2      OT      -0.834000       15.9994           0
     31089 TIP3     4572     TIP3     H1       HT       0.417000       1.00800           0
     31090 TIP3     4572     TIP3     H2       HT       0.417000       1.00800           0
     31091 TIP3     4573     TIP3     OH2      OT      -0.834000       15.9994           0
     31092 TIP3     4573     TIP3     H1       HT       0.417000       1.00800           0
     31093 TIP3     4573     TIP3     H2       HT       0.417000       1.00800           0
     31094 TIP3     4574     TIP3     OH2      OT      -0.834000       15.9994           0
     31095 TIP3     4574     TIP3     H1       HT       0.417000       1.00800           0
     31096 TIP3     4574     TIP3     H2       HT       0.417000       1.00800           0
     31097 TIP3     4575     TIP3     OH2      OT      -0.834000       15.9994           0
     31098 TIP3     4575     TIP3     H1       HT       0.417000       1.00800           0
     31099 TIP3     4575     TIP3     H2       HT       0.417000       1.00800           0
     31100 TIP3     4576     TIP3     OH2      OT      -0.834000       15.9994           0
     31101 TIP3     4576     TIP3     H1       HT       0.417000       1.00800           0
     31102 TIP3     4576     TIP3     H2       HT       0.417000       1.00800           0
     31103 TIP3     4577     TIP3     OH2      OT      -0.834000       15.9994           0
     31104 TIP3     4577     TIP3     H1       HT       0.417000       1.00800           0
     31105 TIP3     4577     TIP3     H2       HT       0.417000       1.00800           0
     31106 TIP3     4578     TIP3     OH2      OT      -0.834000       15.9994           0
     31107 TIP3     4578     TIP3     H1       HT       0.417000       1.00800           0
     31108 TIP3     4578     TIP3     H2       HT       0.417000       1.00800           0
     31109 TIP3     4579     TIP3     OH2      OT      -0.834000       15.9994           0
     31110 TIP3     4579     TIP3     H1       HT       0.417000       1.00800           0
     31111 TIP3     4579     TIP3     H2       HT       0.417000       1.00800           0
     31112 TIP3     4580     TIP3     OH2      OT      -0.834000       15.9994           0
     31113 TIP3     4580     TIP3     H1       HT       0.417000       1.00800           0
     31114 TIP3     4580     TIP3     H2       HT       0.417000       1.00800           0
     31115 TIP3     4581     TIP3     OH2      OT      -0.834000       15.9994           0
     31116 TIP3     4581     TIP3     H1       HT       0.417000       1.00800           0
     31117 TIP3     4581     TIP3     H2       HT       0.417000       1.00800           0
     31118 TIP3     4582     TIP3     OH2      OT      -0.834000       15.9994           0
     31119 TIP3     4582     TIP3     H1       HT       0.417000       1.00800           0
     31120 TIP3     4582     TIP3     H2       HT       0.417000       1.00800           0
     31121 TIP3     4583     TIP3     OH2      OT      -0.834000       15.9994           0
     31122 TIP3     4583     TIP3     H1       HT       0.417000       1.00800           0
     31123 TIP3     4583     TIP3     H2       HT       0.417000       1.00800           0
     31124 TIP3     4584     TIP3     OH2      OT      -0.834000       15.9994           0
     31125 TIP3     4584     TIP3     H1       HT       0.417000       1.00800           0
     31126 TIP3     4584     TIP3     H2       HT       0.417000       1.00800           0
     31127 TIP3     4585     TIP3     OH2      OT      -0.834000       15.9994           0
     31128 TIP3     4585     TIP3     H1       HT       0.417000       1.00800           0
     31129 TIP3     4585     TIP3     H2       HT       0.417000       1.00800           0
     31130 TIP3     4586     TIP3     OH2      OT      -0.834000       15.9994           0
     31131 TIP3     4586     TIP3     H1       HT       0.417000       1.00800           0
     31132 TIP3     4586     TIP3     H2       HT       0.417000       1.00800           0
     31133 TIP3     4587     TIP3     OH2      OT      -0.834000       15.9994           0
     31134 TIP3     4587     TIP3     H1       HT       0.417000       1.00800           0
     31135 TIP3     4587     TIP3     H2       HT       0.417000       1.00800           0
     31136 TIP3     4588     TIP3     OH2      OT      -0.834000       15.9994           0
     31137 TIP3     4588     TIP3     H1       HT       0.417000       1.00800           0
     31138 TIP3     4588     TIP3     H2       HT       0.417000       1.00800           0
     31139 TIP3     4589     TIP3     OH2      OT      -0.834000       15.9994           0
     31140 TIP3     4589     TIP3     H1       HT       0.417000       1.00800           0
     31141 TIP3     4589     TIP3     H2       HT       0.417000       1.00800           0
     31142 TIP3     4590     TIP3     OH2      OT      -0.834000       15.9994           0
     31143 TIP3     4590     TIP3     H1       HT       0.417000       1.00800           0
     31144 TIP3     4590     TIP3     H2       HT       0.417000       1.00800           0
     31145 TIP3     4591     TIP3     OH2      OT      -0.834000       15.9994           0
     31146 TIP3     4591     TIP3     H1       HT       0.417000       1.00800           0
     31147 TIP3     4591     TIP3     H2       HT       0.417000       1.00800           0
     31148 TIP3     4592     TIP3     OH2      OT      -0.834000       15.9994           0
     31149 TIP3     4592     TIP3     H1       HT       0.417000       1.00800           0
     31150 TIP3     4592     TIP3     H2       HT       0.417000       1.00800           0
     31151 TIP3     4593     TIP3     OH2      OT      -0.834000       15.9994           0
     31152 TIP3     4593     TIP3     H1       HT       0.417000       1.00800           0
     31153 TIP3     4593     TIP3     H2       HT       0.417000       1.00800           0
     31154 TIP3     4594     TIP3     OH2      OT      -0.834000       15.9994           0
     31155 TIP3     4594     TIP3     H1       HT       0.417000       1.00800           0
     31156 TIP3     4594     TIP3     H2       HT       0.417000       1.00800           0
     31157 TIP3     4595     TIP3     OH2      OT      -0.834000       15.9994           0
     31158 TIP3     4595     TIP3     H1       HT       0.417000       1.00800           0
     31159 TIP3     4595     TIP3     H2       HT       0.417000       1.00800           0
     31160 TIP3     4596     TIP3     OH2      OT      -0.834000       15.9994           0
     31161 TIP3     4596     TIP3     H1       HT       0.417000       1.00800           0
     31162 TIP3     4596     TIP3     H2       HT       0.417000       1.00800           0
     31163 TIP3     4597     TIP3     OH2      OT      -0.834000       15.9994           0
     31164 TIP3     4597     TIP3     H1       HT       0.417000       1.00800           0
     31165 TIP3     4597     TIP3     H2       HT       0.417000       1.00800           0
     31166 TIP3     4598     TIP3     OH2      OT      -0.834000       15.9994           0
     31167 TIP3     4598     TIP3     H1       HT       0.417000       1.00800           0
     31168 TIP3     4598     TIP3     H2       HT       0.417000       1.00800           0
     31169 TIP3     4599     TIP3     OH2      OT      -0.834000       15.9994           0
     31170 TIP3     4599     TIP3     H1       HT       0.417000       1.00800           0
     31171 TIP3     4599     TIP3     H2       HT       0.417000       1.00800           0
     31172 TIP3     4600     TIP3     OH2      OT      -0.834000       15.9994           0
     31173 TIP3     4600     TIP3     H1       HT       0.417000       1.00800           0
     31174 TIP3     4600     TIP3     H2       HT       0.417000       1.00800           0
     31175 TIP3     4601     TIP3     OH2      OT      -0.834000       15.9994           0
     31176 TIP3     4601     TIP3     H1       HT       0.417000       1.00800           0
     31177 TIP3     4601     TIP3     H2       HT       0.417000       1.00800           0
     31178 TIP3     4602     TIP3     OH2      OT      -0.834000       15.9994           0
     31179 TIP3     4602     TIP3     H1       HT       0.417000       1.00800           0
     31180 TIP3     4602     TIP3     H2       HT       0.417000       1.00800           0
     31181 TIP3     4603     TIP3     OH2      OT      -0.834000       15.9994           0
     31182 TIP3     4603     TIP3     H1       HT       0.417000       1.00800           0
     31183 TIP3     4603     TIP3     H2       HT       0.417000       1.00800           0
     31184 TIP3     4604     TIP3     OH2      OT      -0.834000       15.9994           0
     31185 TIP3     4604     TIP3     H1       HT       0.417000       1.00800           0
     31186 TIP3     4604     TIP3     H2       HT       0.417000       1.00800           0
     31187 TIP3     4605     TIP3     OH2      OT      -0.834000       15.9994           0
     31188 TIP3     4605     TIP3     H1       HT       0.417000       1.00800           0
     31189 TIP3     4605     TIP3     H2       HT       0.417000       1.00800           0
     31190 TIP3     4606     TIP3     OH2      OT      -0.834000       15.9994           0
     31191 TIP3     4606     TIP3     H1       HT       0.417000       1.00800           0
     31192 TIP3     4606     TIP3     H2       HT       0.417000       1.00800           0
     31193 TIP3     4607     TIP3     OH2      OT      -0.834000       15.9994           0
     31194 TIP3     4607     TIP3     H1       HT       0.417000       1.00800           0
     31195 TIP3     4607     TIP3     H2       HT       0.417000       1.00800           0
     31196 TIP3     4608     TIP3     OH2      OT      -0.834000       15.9994           0
     31197 TIP3     4608     TIP3     H1       HT       0.417000       1.00800           0
     31198 TIP3     4608     TIP3     H2       HT       0.417000       1.00800           0
     31199 TIP3     4609     TIP3     OH2      OT      -0.834000       15.9994           0
     31200 TIP3     4609     TIP3     H1       HT       0.417000       1.00800           0
     31201 TIP3     4609     TIP3     H2       HT       0.417000       1.00800           0
     31202 TIP3     4610     TIP3     OH2      OT      -0.834000       15.9994           0
     31203 TIP3     4610     TIP3     H1       HT       0.417000       1.00800           0
     31204 TIP3     4610     TIP3     H2       HT       0.417000       1.00800           0
     31205 TIP3     4611     TIP3     OH2      OT      -0.834000       15.9994           0
     31206 TIP3     4611     TIP3     H1       HT       0.417000       1.00800           0
     31207 TIP3     4611     TIP3     H2       HT       0.417000       1.00800           0
     31208 TIP3     4612     TIP3     OH2      OT      -0.834000       15.9994           0
     31209 TIP3     4612     TIP3     H1       HT       0.417000       1.00800           0
     31210 TIP3     4612     TIP3     H2       HT       0.417000       1.00800           0
     31211 TIP3     4613     TIP3     OH2      OT      -0.834000       15.9994           0
     31212 TIP3     4613     TIP3     H1       HT       0.417000       1.00800           0
     31213 TIP3     4613     TIP3     H2       HT       0.417000       1.00800           0
     31214 TIP3     4614     TIP3     OH2      OT      -0.834000       15.9994           0
     31215 TIP3     4614     TIP3     H1       HT       0.417000       1.00800           0
     31216 TIP3     4614     TIP3     H2       HT       0.417000       1.00800           0
     31217 TIP3     4615     TIP3     OH2      OT      -0.834000       15.9994           0
     31218 TIP3     4615     TIP3     H1       HT       0.417000       1.00800           0
     31219 TIP3     4615     TIP3     H2       HT       0.417000       1.00800           0
     31220 TIP3     4616     TIP3     OH2      OT      -0.834000       15.9994           0
     31221 TIP3     4616     TIP3     H1       HT       0.417000       1.00800           0
     31222 TIP3     4616     TIP3     H2       HT       0.417000       1.00800           0
     31223 TIP3     4617     TIP3     OH2      OT      -0.834000       15.9994           0
     31224 TIP3     4617     TIP3     H1       HT       0.417000       1.00800           0
     31225 TIP3     4617     TIP3     H2       HT       0.417000       1.00800           0
     31226 TIP3     4618     TIP3     OH2      OT      -0.834000       15.9994           0
     31227 TIP3     4618     TIP3     H1       HT       0.417000       1.00800           0
     31228 TIP3     4618     TIP3     H2       HT       0.417000       1.00800           0
     31229 TIP3     4619     TIP3     OH2      OT      -0.834000       15.9994           0
     31230 TIP3     4619     TIP3     H1       HT       0.417000       1.00800           0
     31231 TIP3     4619     TIP3     H2       HT       0.417000       1.00800           0
     31232 TIP3     4620     TIP3     OH2      OT      -0.834000       15.9994           0
     31233 TIP3     4620     TIP3     H1       HT       0.417000       1.00800           0
     31234 TIP3     4620     TIP3     H2       HT       0.417000       1.00800           0
     31235 TIP3     4621     TIP3     OH2      OT      -0.834000       15.9994           0
     31236 TIP3     4621     TIP3     H1       HT       0.417000       1.00800           0
     31237 TIP3     4621     TIP3     H2       HT       0.417000       1.00800           0
     31238 TIP3     4622     TIP3     OH2      OT      -0.834000       15.9994           0
     31239 TIP3     4622     TIP3     H1       HT       0.417000       1.00800           0
     31240 TIP3     4622     TIP3     H2       HT       0.417000       1.00800           0
     31241 TIP3     4623     TIP3     OH2      OT      -0.834000       15.9994           0
     31242 TIP3     4623     TIP3     H1       HT       0.417000       1.00800           0
     31243 TIP3     4623     TIP3     H2       HT       0.417000       1.00800           0
     31244 TIP3     4624     TIP3     OH2      OT      -0.834000       15.9994           0
     31245 TIP3     4624     TIP3     H1       HT       0.417000       1.00800           0
     31246 TIP3     4624     TIP3     H2       HT       0.417000       1.00800           0
     31247 TIP3     4625     TIP3     OH2      OT      -0.834000       15.9994           0
     31248 TIP3     4625     TIP3     H1       HT       0.417000       1.00800           0
     31249 TIP3     4625     TIP3     H2       HT       0.417000       1.00800           0
     31250 TIP3     4626     TIP3     OH2      OT      -0.834000       15.9994           0
     31251 TIP3     4626     TIP3     H1       HT       0.417000       1.00800           0
     31252 TIP3     4626     TIP3     H2       HT       0.417000       1.00800           0
     31253 TIP3     4627     TIP3     OH2      OT      -0.834000       15.9994           0
     31254 TIP3     4627     TIP3     H1       HT       0.417000       1.00800           0
     31255 TIP3     4627     TIP3     H2       HT       0.417000       1.00800           0
     31256 TIP3     4628     TIP3     OH2      OT      -0.834000       15.9994           0
     31257 TIP3     4628     TIP3     H1       HT       0.417000       1.00800           0
     31258 TIP3     4628     TIP3     H2       HT       0.417000       1.00800           0
     31259 TIP3     4629     TIP3     OH2      OT      -0.834000       15.9994           0
     31260 TIP3     4629     TIP3     H1       HT       0.417000       1.00800           0
     31261 TIP3     4629     TIP3     H2       HT       0.417000       1.00800           0
     31262 TIP3     4630     TIP3     OH2      OT      -0.834000       15.9994           0
     31263 TIP3     4630     TIP3     H1       HT       0.417000       1.00800           0
     31264 TIP3     4630     TIP3     H2       HT       0.417000       1.00800           0
     31265 TIP3     4631     TIP3     OH2      OT      -0.834000       15.9994           0
     31266 TIP3     4631     TIP3     H1       HT       0.417000       1.00800           0
     31267 TIP3     4631     TIP3     H2       HT       0.417000       1.00800           0
     31268 TIP3     4632     TIP3     OH2      OT      -0.834000       15.9994           0
     31269 TIP3     4632     TIP3     H1       HT       0.417000       1.00800           0
     31270 TIP3     4632     TIP3     H2       HT       0.417000       1.00800           0
     31271 TIP3     4633     TIP3     OH2      OT      -0.834000       15.9994           0
     31272 TIP3     4633     TIP3     H1       HT       0.417000       1.00800           0
     31273 TIP3     4633     TIP3     H2       HT       0.417000       1.00800           0
     31274 TIP3     4634     TIP3     OH2      OT      -0.834000       15.9994           0
     31275 TIP3     4634     TIP3     H1       HT       0.417000       1.00800           0
     31276 TIP3     4634     TIP3     H2       HT       0.417000       1.00800           0
     31277 TIP3     4635     TIP3     OH2      OT      -0.834000       15.9994           0
     31278 TIP3     4635     TIP3     H1       HT       0.417000       1.00800           0
     31279 TIP3     4635     TIP3     H2       HT       0.417000       1.00800           0
     31280 TIP3     4636     TIP3     OH2      OT      -0.834000       15.9994           0
     31281 TIP3     4636     TIP3     H1       HT       0.417000       1.00800           0
     31282 TIP3     4636     TIP3     H2       HT       0.417000       1.00800           0
     31283 TIP3     4637     TIP3     OH2      OT      -0.834000       15.9994           0
     31284 TIP3     4637     TIP3     H1       HT       0.417000       1.00800           0
     31285 TIP3     4637     TIP3     H2       HT       0.417000       1.00800           0
     31286 TIP3     4638     TIP3     OH2      OT      -0.834000       15.9994           0
     31287 TIP3     4638     TIP3     H1       HT       0.417000       1.00800           0
     31288 TIP3     4638     TIP3     H2       HT       0.417000       1.00800           0
     31289 TIP3     4639     TIP3     OH2      OT      -0.834000       15.9994           0
     31290 TIP3     4639     TIP3     H1       HT       0.417000       1.00800           0
     31291 TIP3     4639     TIP3     H2       HT       0.417000       1.00800           0
     31292 TIP3     4640     TIP3     OH2      OT      -0.834000       15.9994           0
     31293 TIP3     4640     TIP3     H1       HT       0.417000       1.00800           0
     31294 TIP3     4640     TIP3     H2       HT       0.417000       1.00800           0
     31295 TIP3     4641     TIP3     OH2      OT      -0.834000       15.9994           0
     31296 TIP3     4641     TIP3     H1       HT       0.417000       1.00800           0
     31297 TIP3     4641     TIP3     H2       HT       0.417000       1.00800           0
     31298 TIP3     4642     TIP3     OH2      OT      -0.834000       15.9994           0
     31299 TIP3     4642     TIP3     H1       HT       0.417000       1.00800           0
     31300 TIP3     4642     TIP3     H2       HT       0.417000       1.00800           0
     31301 TIP3     4643     TIP3     OH2      OT      -0.834000       15.9994           0
     31302 TIP3     4643     TIP3     H1       HT       0.417000       1.00800           0
     31303 TIP3     4643     TIP3     H2       HT       0.417000       1.00800           0
     31304 TIP3     4644     TIP3     OH2      OT      -0.834000       15.9994           0
     31305 TIP3     4644     TIP3     H1       HT       0.417000       1.00800           0
     31306 TIP3     4644     TIP3     H2       HT       0.417000       1.00800           0
     31307 TIP3     4645     TIP3     OH2      OT      -0.834000       15.9994           0
     31308 TIP3     4645     TIP3     H1       HT       0.417000       1.00800           0
     31309 TIP3     4645     TIP3     H2       HT       0.417000       1.00800           0
     31310 TIP3     4646     TIP3     OH2      OT      -0.834000       15.9994           0
     31311 TIP3     4646     TIP3     H1       HT       0.417000       1.00800           0
     31312 TIP3     4646     TIP3     H2       HT       0.417000       1.00800           0
     31313 TIP3     4647     TIP3     OH2      OT      -0.834000       15.9994           0
     31314 TIP3     4647     TIP3     H1       HT       0.417000       1.00800           0
     31315 TIP3     4647     TIP3     H2       HT       0.417000       1.00800           0
     31316 TIP3     4648     TIP3     OH2      OT      -0.834000       15.9994           0
     31317 TIP3     4648     TIP3     H1       HT       0.417000       1.00800           0
     31318 TIP3     4648     TIP3     H2       HT       0.417000       1.00800           0
     31319 TIP3     4649     TIP3     OH2      OT      -0.834000       15.9994           0
     31320 TIP3     4649     TIP3     H1       HT       0.417000       1.00800           0
     31321 TIP3     4649     TIP3     H2       HT       0.417000       1.00800           0
     31322 TIP3     4650     TIP3     OH2      OT      -0.834000       15.9994           0
     31323 TIP3     4650     TIP3     H1       HT       0.417000       1.00800           0
     31324 TIP3     4650     TIP3     H2       HT       0.417000       1.00800           0
     31325 TIP3     4651     TIP3     OH2      OT      -0.834000       15.9994           0
     31326 TIP3     4651     TIP3     H1       HT       0.417000       1.00800           0
     31327 TIP3     4651     TIP3     H2       HT       0.417000       1.00800           0
     31328 TIP3     4652     TIP3     OH2      OT      -0.834000       15.9994           0
     31329 TIP3     4652     TIP3     H1       HT       0.417000       1.00800           0
     31330 TIP3     4652     TIP3     H2       HT       0.417000       1.00800           0
     31331 TIP3     4653     TIP3     OH2      OT      -0.834000       15.9994           0
     31332 TIP3     4653     TIP3     H1       HT       0.417000       1.00800           0
     31333 TIP3     4653     TIP3     H2       HT       0.417000       1.00800           0
     31334 TIP3     4654     TIP3     OH2      OT      -0.834000       15.9994           0
     31335 TIP3     4654     TIP3     H1       HT       0.417000       1.00800           0
     31336 TIP3     4654     TIP3     H2       HT       0.417000       1.00800           0
     31337 TIP3     4655     TIP3     OH2      OT      -0.834000       15.9994           0
     31338 TIP3     4655     TIP3     H1       HT       0.417000       1.00800           0
     31339 TIP3     4655     TIP3     H2       HT       0.417000       1.00800           0
     31340 TIP3     4656     TIP3     OH2      OT      -0.834000       15.9994           0
     31341 TIP3     4656     TIP3     H1       HT       0.417000       1.00800           0
     31342 TIP3     4656     TIP3     H2       HT       0.417000       1.00800           0
     31343 TIP3     4657     TIP3     OH2      OT      -0.834000       15.9994           0
     31344 TIP3     4657     TIP3     H1       HT       0.417000       1.00800           0
     31345 TIP3     4657     TIP3     H2       HT       0.417000       1.00800           0
     31346 TIP3     4658     TIP3     OH2      OT      -0.834000       15.9994           0
     31347 TIP3     4658     TIP3     H1       HT       0.417000       1.00800           0
     31348 TIP3     4658     TIP3     H2       HT       0.417000       1.00800           0
     31349 TIP3     4659     TIP3     OH2      OT      -0.834000       15.9994           0
     31350 TIP3     4659     TIP3     H1       HT       0.417000       1.00800           0
     31351 TIP3     4659     TIP3     H2       HT       0.417000       1.00800           0
     31352 TIP3     4660     TIP3     OH2      OT      -0.834000       15.9994           0
     31353 TIP3     4660     TIP3     H1       HT       0.417000       1.00800           0
     31354 TIP3     4660     TIP3     H2       HT       0.417000       1.00800           0
     31355 TIP3     4661     TIP3     OH2      OT      -0.834000       15.9994           0
     31356 TIP3     4661     TIP3     H1       HT       0.417000       1.00800           0
     31357 TIP3     4661     TIP3     H2       HT       0.417000       1.00800           0
     31358 TIP3     4662     TIP3     OH2      OT      -0.834000       15.9994           0
     31359 TIP3     4662     TIP3     H1       HT       0.417000       1.00800           0
     31360 TIP3     4662     TIP3     H2       HT       0.417000       1.00800           0
     31361 TIP3     4663     TIP3     OH2      OT      -0.834000       15.9994           0
     31362 TIP3     4663     TIP3     H1       HT       0.417000       1.00800           0
     31363 TIP3     4663     TIP3     H2       HT       0.417000       1.00800           0
     31364 TIP3     4664     TIP3     OH2      OT      -0.834000       15.9994           0
     31365 TIP3     4664     TIP3     H1       HT       0.417000       1.00800           0
     31366 TIP3     4664     TIP3     H2       HT       0.417000       1.00800           0
     31367 TIP3     4665     TIP3     OH2      OT      -0.834000       15.9994           0
     31368 TIP3     4665     TIP3     H1       HT       0.417000       1.00800           0
     31369 TIP3     4665     TIP3     H2       HT       0.417000       1.00800           0
     31370 TIP3     4666     TIP3     OH2      OT      -0.834000       15.9994           0
     31371 TIP3     4666     TIP3     H1       HT       0.417000       1.00800           0
     31372 TIP3     4666     TIP3     H2       HT       0.417000       1.00800           0
     31373 TIP3     4667     TIP3     OH2      OT      -0.834000       15.9994           0
     31374 TIP3     4667     TIP3     H1       HT       0.417000       1.00800           0
     31375 TIP3     4667     TIP3     H2       HT       0.417000       1.00800           0
     31376 TIP3     4668     TIP3     OH2      OT      -0.834000       15.9994           0
     31377 TIP3     4668     TIP3     H1       HT       0.417000       1.00800           0
     31378 TIP3     4668     TIP3     H2       HT       0.417000       1.00800           0
     31379 TIP3     4669     TIP3     OH2      OT      -0.834000       15.9994           0
     31380 TIP3     4669     TIP3     H1       HT       0.417000       1.00800           0
     31381 TIP3     4669     TIP3     H2       HT       0.417000       1.00800           0
     31382 TIP3     4670     TIP3     OH2      OT      -0.834000       15.9994           0
     31383 TIP3     4670     TIP3     H1       HT       0.417000       1.00800           0
     31384 TIP3     4670     TIP3     H2       HT       0.417000       1.00800           0
     31385 TIP3     4671     TIP3     OH2      OT      -0.834000       15.9994           0
     31386 TIP3     4671     TIP3     H1       HT       0.417000       1.00800           0
     31387 TIP3     4671     TIP3     H2       HT       0.417000       1.00800           0
     31388 TIP3     4672     TIP3     OH2      OT      -0.834000       15.9994           0
     31389 TIP3     4672     TIP3     H1       HT       0.417000       1.00800           0
     31390 TIP3     4672     TIP3     H2       HT       0.417000       1.00800           0
     31391 TIP3     4673     TIP3     OH2      OT      -0.834000       15.9994           0
     31392 TIP3     4673     TIP3     H1       HT       0.417000       1.00800           0
     31393 TIP3     4673     TIP3     H2       HT       0.417000       1.00800           0
     31394 TIP3     4674     TIP3     OH2      OT      -0.834000       15.9994           0
     31395 TIP3     4674     TIP3     H1       HT       0.417000       1.00800           0
     31396 TIP3     4674     TIP3     H2       HT       0.417000       1.00800           0
     31397 TIP3     4675     TIP3     OH2      OT      -0.834000       15.9994           0
     31398 TIP3     4675     TIP3     H1       HT       0.417000       1.00800           0
     31399 TIP3     4675     TIP3     H2       HT       0.417000       1.00800           0
     31400 TIP3     4676     TIP3     OH2      OT      -0.834000       15.9994           0
     31401 TIP3     4676     TIP3     H1       HT       0.417000       1.00800           0
     31402 TIP3     4676     TIP3     H2       HT       0.417000       1.00800           0
     31403 TIP3     4677     TIP3     OH2      OT      -0.834000       15.9994           0
     31404 TIP3     4677     TIP3     H1       HT       0.417000       1.00800           0
     31405 TIP3     4677     TIP3     H2       HT       0.417000       1.00800           0
     31406 TIP3     4678     TIP3     OH2      OT      -0.834000       15.9994           0
     31407 TIP3     4678     TIP3     H1       HT       0.417000       1.00800           0
     31408 TIP3     4678     TIP3     H2       HT       0.417000       1.00800           0
     31409 TIP3     4679     TIP3     OH2      OT      -0.834000       15.9994           0
     31410 TIP3     4679     TIP3     H1       HT       0.417000       1.00800           0
     31411 TIP3     4679     TIP3     H2       HT       0.417000       1.00800           0
     31412 TIP3     4680     TIP3     OH2      OT      -0.834000       15.9994           0
     31413 TIP3     4680     TIP3     H1       HT       0.417000       1.00800           0
     31414 TIP3     4680     TIP3     H2       HT       0.417000       1.00800           0
     31415 TIP3     4681     TIP3     OH2      OT      -0.834000       15.9994           0
     31416 TIP3     4681     TIP3     H1       HT       0.417000       1.00800           0
     31417 TIP3     4681     TIP3     H2       HT       0.417000       1.00800           0
     31418 TIP3     4682     TIP3     OH2      OT      -0.834000       15.9994           0
     31419 TIP3     4682     TIP3     H1       HT       0.417000       1.00800           0
     31420 TIP3     4682     TIP3     H2       HT       0.417000       1.00800           0
     31421 TIP3     4683     TIP3     OH2      OT      -0.834000       15.9994           0
     31422 TIP3     4683     TIP3     H1       HT       0.417000       1.00800           0
     31423 TIP3     4683     TIP3     H2       HT       0.417000       1.00800           0
     31424 TIP3     4684     TIP3     OH2      OT      -0.834000       15.9994           0
     31425 TIP3     4684     TIP3     H1       HT       0.417000       1.00800           0
     31426 TIP3     4684     TIP3     H2       HT       0.417000       1.00800           0
     31427 TIP3     4685     TIP3     OH2      OT      -0.834000       15.9994           0
     31428 TIP3     4685     TIP3     H1       HT       0.417000       1.00800           0
     31429 TIP3     4685     TIP3     H2       HT       0.417000       1.00800           0
     31430 TIP3     4686     TIP3     OH2      OT      -0.834000       15.9994           0
     31431 TIP3     4686     TIP3     H1       HT       0.417000       1.00800           0
     31432 TIP3     4686     TIP3     H2       HT       0.417000       1.00800           0
     31433 TIP3     4687     TIP3     OH2      OT      -0.834000       15.9994           0
     31434 TIP3     4687     TIP3     H1       HT       0.417000       1.00800           0
     31435 TIP3     4687     TIP3     H2       HT       0.417000       1.00800           0
     31436 TIP3     4688     TIP3     OH2      OT      -0.834000       15.9994           0
     31437 TIP3     4688     TIP3     H1       HT       0.417000       1.00800           0
     31438 TIP3     4688     TIP3     H2       HT       0.417000       1.00800           0
     31439 TIP3     4689     TIP3     OH2      OT      -0.834000       15.9994           0
     31440 TIP3     4689     TIP3     H1       HT       0.417000       1.00800           0
     31441 TIP3     4689     TIP3     H2       HT       0.417000       1.00800           0
     31442 TIP3     4690     TIP3     OH2      OT      -0.834000       15.9994           0
     31443 TIP3     4690     TIP3     H1       HT       0.417000       1.00800           0
     31444 TIP3     4690     TIP3     H2       HT       0.417000       1.00800           0
     31445 TIP3     4691     TIP3     OH2      OT      -0.834000       15.9994           0
     31446 TIP3     4691     TIP3     H1       HT       0.417000       1.00800           0
     31447 TIP3     4691     TIP3     H2       HT       0.417000       1.00800           0
     31448 TIP3     4692     TIP3     OH2      OT      -0.834000       15.9994           0
     31449 TIP3     4692     TIP3     H1       HT       0.417000       1.00800           0
     31450 TIP3     4692     TIP3     H2       HT       0.417000       1.00800           0
     31451 TIP3     4693     TIP3     OH2      OT      -0.834000       15.9994           0
     31452 TIP3     4693     TIP3     H1       HT       0.417000       1.00800           0
     31453 TIP3     4693     TIP3     H2       HT       0.417000       1.00800           0
     31454 TIP3     4694     TIP3     OH2      OT      -0.834000       15.9994           0
     31455 TIP3     4694     TIP3     H1       HT       0.417000       1.00800           0
     31456 TIP3     4694     TIP3     H2       HT       0.417000       1.00800           0
     31457 TIP3     4695     TIP3     OH2      OT      -0.834000       15.9994           0
     31458 TIP3     4695     TIP3     H1       HT       0.417000       1.00800           0
     31459 TIP3     4695     TIP3     H2       HT       0.417000       1.00800           0
     31460 TIP3     4696     TIP3     OH2      OT      -0.834000       15.9994           0
     31461 TIP3     4696     TIP3     H1       HT       0.417000       1.00800           0
     31462 TIP3     4696     TIP3     H2       HT       0.417000       1.00800           0
     31463 TIP3     4697     TIP3     OH2      OT      -0.834000       15.9994           0
     31464 TIP3     4697     TIP3     H1       HT       0.417000       1.00800           0
     31465 TIP3     4697     TIP3     H2       HT       0.417000       1.00800           0
     31466 TIP3     4698     TIP3     OH2      OT      -0.834000       15.9994           0
     31467 TIP3     4698     TIP3     H1       HT       0.417000       1.00800           0
     31468 TIP3     4698     TIP3     H2       HT       0.417000       1.00800           0
     31469 TIP3     4699     TIP3     OH2      OT      -0.834000       15.9994           0
     31470 TIP3     4699     TIP3     H1       HT       0.417000       1.00800           0
     31471 TIP3     4699     TIP3     H2       HT       0.417000       1.00800           0
     31472 TIP3     4700     TIP3     OH2      OT      -0.834000       15.9994           0
     31473 TIP3     4700     TIP3     H1       HT       0.417000       1.00800           0
     31474 TIP3     4700     TIP3     H2       HT       0.417000       1.00800           0
     31475 TIP3     4701     TIP3     OH2      OT      -0.834000       15.9994           0
     31476 TIP3     4701     TIP3     H1       HT       0.417000       1.00800           0
     31477 TIP3     4701     TIP3     H2       HT       0.417000       1.00800           0
     31478 TIP3     4702     TIP3     OH2      OT      -0.834000       15.9994           0
     31479 TIP3     4702     TIP3     H1       HT       0.417000       1.00800           0
     31480 TIP3     4702     TIP3     H2       HT       0.417000       1.00800           0
     31481 TIP3     4703     TIP3     OH2      OT      -0.834000       15.9994           0
     31482 TIP3     4703     TIP3     H1       HT       0.417000       1.00800           0
     31483 TIP3     4703     TIP3     H2       HT       0.417000       1.00800           0
     31484 TIP3     4704     TIP3     OH2      OT      -0.834000       15.9994           0
     31485 TIP3     4704     TIP3     H1       HT       0.417000       1.00800           0
     31486 TIP3     4704     TIP3     H2       HT       0.417000       1.00800           0
     31487 TIP3     4705     TIP3     OH2      OT      -0.834000       15.9994           0
     31488 TIP3     4705     TIP3     H1       HT       0.417000       1.00800           0
     31489 TIP3     4705     TIP3     H2       HT       0.417000       1.00800           0
     31490 TIP3     4706     TIP3     OH2      OT      -0.834000       15.9994           0
     31491 TIP3     4706     TIP3     H1       HT       0.417000       1.00800           0
     31492 TIP3     4706     TIP3     H2       HT       0.417000       1.00800           0
     31493 TIP3     4707     TIP3     OH2      OT      -0.834000       15.9994           0
     31494 TIP3     4707     TIP3     H1       HT       0.417000       1.00800           0
     31495 TIP3     4707     TIP3     H2       HT       0.417000       1.00800           0
     31496 TIP3     4708     TIP3     OH2      OT      -0.834000       15.9994           0
     31497 TIP3     4708     TIP3     H1       HT       0.417000       1.00800           0
     31498 TIP3     4708     TIP3     H2       HT       0.417000       1.00800           0
     31499 TIP3     4709     TIP3     OH2      OT      -0.834000       15.9994           0
     31500 TIP3     4709     TIP3     H1       HT       0.417000       1.00800           0
     31501 TIP3     4709     TIP3     H2       HT       0.417000       1.00800           0
     31502 TIP3     4710     TIP3     OH2      OT      -0.834000       15.9994           0
     31503 TIP3     4710     TIP3     H1       HT       0.417000       1.00800           0
     31504 TIP3     4710     TIP3     H2       HT       0.417000       1.00800           0
     31505 TIP3     4711     TIP3     OH2      OT      -0.834000       15.9994           0
     31506 TIP3     4711     TIP3     H1       HT       0.417000       1.00800           0
     31507 TIP3     4711     TIP3     H2       HT       0.417000       1.00800           0
     31508 TIP3     4712     TIP3     OH2      OT      -0.834000       15.9994           0
     31509 TIP3     4712     TIP3     H1       HT       0.417000       1.00800           0
     31510 TIP3     4712     TIP3     H2       HT       0.417000       1.00800           0
     31511 TIP3     4713     TIP3     OH2      OT      -0.834000       15.9994           0
     31512 TIP3     4713     TIP3     H1       HT       0.417000       1.00800           0
     31513 TIP3     4713     TIP3     H2       HT       0.417000       1.00800           0
     31514 TIP3     4714     TIP3     OH2      OT      -0.834000       15.9994           0
     31515 TIP3     4714     TIP3     H1       HT       0.417000       1.00800           0
     31516 TIP3     4714     TIP3     H2       HT       0.417000       1.00800           0
     31517 TIP3     4715     TIP3     OH2      OT      -0.834000       15.9994           0
     31518 TIP3     4715     TIP3     H1       HT       0.417000       1.00800           0
     31519 TIP3     4715     TIP3     H2       HT       0.417000       1.00800           0
     31520 TIP3     4716     TIP3     OH2      OT      -0.834000       15.9994           0
     31521 TIP3     4716     TIP3     H1       HT       0.417000       1.00800           0
     31522 TIP3     4716     TIP3     H2       HT       0.417000       1.00800           0
     31523 TIP3     4717     TIP3     OH2      OT      -0.834000       15.9994           0
     31524 TIP3     4717     TIP3     H1       HT       0.417000       1.00800           0
     31525 TIP3     4717     TIP3     H2       HT       0.417000       1.00800           0
     31526 TIP3     4718     TIP3     OH2      OT      -0.834000       15.9994           0
     31527 TIP3     4718     TIP3     H1       HT       0.417000       1.00800           0
     31528 TIP3     4718     TIP3     H2       HT       0.417000       1.00800           0
     31529 TIP3     4719     TIP3     OH2      OT      -0.834000       15.9994           0
     31530 TIP3     4719     TIP3     H1       HT       0.417000       1.00800           0
     31531 TIP3     4719     TIP3     H2       HT       0.417000       1.00800           0
     31532 TIP3     4720     TIP3     OH2      OT      -0.834000       15.9994           0
     31533 TIP3     4720     TIP3     H1       HT       0.417000       1.00800           0
     31534 TIP3     4720     TIP3     H2       HT       0.417000       1.00800           0
     31535 TIP3     4721     TIP3     OH2      OT      -0.834000       15.9994           0
     31536 TIP3     4721     TIP3     H1       HT       0.417000       1.00800           0
     31537 TIP3     4721     TIP3     H2       HT       0.417000       1.00800           0
     31538 TIP3     4722     TIP3     OH2      OT      -0.834000       15.9994           0
     31539 TIP3     4722     TIP3     H1       HT       0.417000       1.00800           0
     31540 TIP3     4722     TIP3     H2       HT       0.417000       1.00800           0
     31541 TIP3     4723     TIP3     OH2      OT      -0.834000       15.9994           0
     31542 TIP3     4723     TIP3     H1       HT       0.417000       1.00800           0
     31543 TIP3     4723     TIP3     H2       HT       0.417000       1.00800           0
     31544 TIP3     4724     TIP3     OH2      OT      -0.834000       15.9994           0
     31545 TIP3     4724     TIP3     H1       HT       0.417000       1.00800           0
     31546 TIP3     4724     TIP3     H2       HT       0.417000       1.00800           0
     31547 TIP3     4725     TIP3     OH2      OT      -0.834000       15.9994           0
     31548 TIP3     4725     TIP3     H1       HT       0.417000       1.00800           0
     31549 TIP3     4725     TIP3     H2       HT       0.417000       1.00800           0
     31550 TIP3     4726     TIP3     OH2      OT      -0.834000       15.9994           0
     31551 TIP3     4726     TIP3     H1       HT       0.417000       1.00800           0
     31552 TIP3     4726     TIP3     H2       HT       0.417000       1.00800           0
     31553 TIP3     4727     TIP3     OH2      OT      -0.834000       15.9994           0
     31554 TIP3     4727     TIP3     H1       HT       0.417000       1.00800           0
     31555 TIP3     4727     TIP3     H2       HT       0.417000       1.00800           0
     31556 TIP3     4728     TIP3     OH2      OT      -0.834000       15.9994           0
     31557 TIP3     4728     TIP3     H1       HT       0.417000       1.00800           0
     31558 TIP3     4728     TIP3     H2       HT       0.417000       1.00800           0
     31559 TIP3     4729     TIP3     OH2      OT      -0.834000       15.9994           0
     31560 TIP3     4729     TIP3     H1       HT       0.417000       1.00800           0
     31561 TIP3     4729     TIP3     H2       HT       0.417000       1.00800           0
     31562 TIP3     4730     TIP3     OH2      OT      -0.834000       15.9994           0
     31563 TIP3     4730     TIP3     H1       HT       0.417000       1.00800           0
     31564 TIP3     4730     TIP3     H2       HT       0.417000       1.00800           0
     31565 TIP3     4731     TIP3     OH2      OT      -0.834000       15.9994           0
     31566 TIP3     4731     TIP3     H1       HT       0.417000       1.00800           0
     31567 TIP3     4731     TIP3     H2       HT       0.417000       1.00800           0
     31568 TIP3     4732     TIP3     OH2      OT      -0.834000       15.9994           0
     31569 TIP3     4732     TIP3     H1       HT       0.417000       1.00800           0
     31570 TIP3     4732     TIP3     H2       HT       0.417000       1.00800           0
     31571 TIP3     4733     TIP3     OH2      OT      -0.834000       15.9994           0
     31572 TIP3     4733     TIP3     H1       HT       0.417000       1.00800           0
     31573 TIP3     4733     TIP3     H2       HT       0.417000       1.00800           0
     31574 TIP3     4734     TIP3     OH2      OT      -0.834000       15.9994           0
     31575 TIP3     4734     TIP3     H1       HT       0.417000       1.00800           0
     31576 TIP3     4734     TIP3     H2       HT       0.417000       1.00800           0
     31577 TIP3     4735     TIP3     OH2      OT      -0.834000       15.9994           0
     31578 TIP3     4735     TIP3     H1       HT       0.417000       1.00800           0
     31579 TIP3     4735     TIP3     H2       HT       0.417000       1.00800           0
     31580 TIP3     4736     TIP3     OH2      OT      -0.834000       15.9994           0
     31581 TIP3     4736     TIP3     H1       HT       0.417000       1.00800           0
     31582 TIP3     4736     TIP3     H2       HT       0.417000       1.00800           0
     31583 TIP3     4737     TIP3     OH2      OT      -0.834000       15.9994           0
     31584 TIP3     4737     TIP3     H1       HT       0.417000       1.00800           0
     31585 TIP3     4737     TIP3     H2       HT       0.417000       1.00800           0
     31586 TIP3     4738     TIP3     OH2      OT      -0.834000       15.9994           0
     31587 TIP3     4738     TIP3     H1       HT       0.417000       1.00800           0
     31588 TIP3     4738     TIP3     H2       HT       0.417000       1.00800           0
     31589 TIP3     4739     TIP3     OH2      OT      -0.834000       15.9994           0
     31590 TIP3     4739     TIP3     H1       HT       0.417000       1.00800           0
     31591 TIP3     4739     TIP3     H2       HT       0.417000       1.00800           0
     31592 TIP3     4740     TIP3     OH2      OT      -0.834000       15.9994           0
     31593 TIP3     4740     TIP3     H1       HT       0.417000       1.00800           0
     31594 TIP3     4740     TIP3     H2       HT       0.417000       1.00800           0
     31595 TIP3     4741     TIP3     OH2      OT      -0.834000       15.9994           0
     31596 TIP3     4741     TIP3     H1       HT       0.417000       1.00800           0
     31597 TIP3     4741     TIP3     H2       HT       0.417000       1.00800           0
     31598 TIP3     4742     TIP3     OH2      OT      -0.834000       15.9994           0
     31599 TIP3     4742     TIP3     H1       HT       0.417000       1.00800           0
     31600 TIP3     4742     TIP3     H2       HT       0.417000       1.00800           0
     31601 TIP3     4743     TIP3     OH2      OT      -0.834000       15.9994           0
     31602 TIP3     4743     TIP3     H1       HT       0.417000       1.00800           0
     31603 TIP3     4743     TIP3     H2       HT       0.417000       1.00800           0
     31604 TIP3     4744     TIP3     OH2      OT      -0.834000       15.9994           0
     31605 TIP3     4744     TIP3     H1       HT       0.417000       1.00800           0
     31606 TIP3     4744     TIP3     H2       HT       0.417000       1.00800           0
     31607 TIP3     4745     TIP3     OH2      OT      -0.834000       15.9994           0
     31608 TIP3     4745     TIP3     H1       HT       0.417000       1.00800           0
     31609 TIP3     4745     TIP3     H2       HT       0.417000       1.00800           0
     31610 TIP3     4746     TIP3     OH2      OT      -0.834000       15.9994           0
     31611 TIP3     4746     TIP3     H1       HT       0.417000       1.00800           0
     31612 TIP3     4746     TIP3     H2       HT       0.417000       1.00800           0
     31613 TIP3     4747     TIP3     OH2      OT      -0.834000       15.9994           0
     31614 TIP3     4747     TIP3     H1       HT       0.417000       1.00800           0
     31615 TIP3     4747     TIP3     H2       HT       0.417000       1.00800           0
     31616 TIP3     4748     TIP3     OH2      OT      -0.834000       15.9994           0
     31617 TIP3     4748     TIP3     H1       HT       0.417000       1.00800           0
     31618 TIP3     4748     TIP3     H2       HT       0.417000       1.00800           0
     31619 TIP3     4749     TIP3     OH2      OT      -0.834000       15.9994           0
     31620 TIP3     4749     TIP3     H1       HT       0.417000       1.00800           0
     31621 TIP3     4749     TIP3     H2       HT       0.417000       1.00800           0
     31622 TIP3     4750     TIP3     OH2      OT      -0.834000       15.9994           0
     31623 TIP3     4750     TIP3     H1       HT       0.417000       1.00800           0
     31624 TIP3     4750     TIP3     H2       HT       0.417000       1.00800           0
     31625 TIP3     4751     TIP3     OH2      OT      -0.834000       15.9994           0
     31626 TIP3     4751     TIP3     H1       HT       0.417000       1.00800           0
     31627 TIP3     4751     TIP3     H2       HT       0.417000       1.00800           0
     31628 TIP3     4752     TIP3     OH2      OT      -0.834000       15.9994           0
     31629 TIP3     4752     TIP3     H1       HT       0.417000       1.00800           0
     31630 TIP3     4752     TIP3     H2       HT       0.417000       1.00800           0
     31631 TIP3     4753     TIP3     OH2      OT      -0.834000       15.9994           0
     31632 TIP3     4753     TIP3     H1       HT       0.417000       1.00800           0
     31633 TIP3     4753     TIP3     H2       HT       0.417000       1.00800           0
     31634 TIP3     4754     TIP3     OH2      OT      -0.834000       15.9994           0
     31635 TIP3     4754     TIP3     H1       HT       0.417000       1.00800           0
     31636 TIP3     4754     TIP3     H2       HT       0.417000       1.00800           0
     31637 TIP3     4755     TIP3     OH2      OT      -0.834000       15.9994           0
     31638 TIP3     4755     TIP3     H1       HT       0.417000       1.00800           0
     31639 TIP3     4755     TIP3     H2       HT       0.417000       1.00800           0
     31640 TIP3     4756     TIP3     OH2      OT      -0.834000       15.9994           0
     31641 TIP3     4756     TIP3     H1       HT       0.417000       1.00800           0
     31642 TIP3     4756     TIP3     H2       HT       0.417000       1.00800           0
     31643 TIP3     4757     TIP3     OH2      OT      -0.834000       15.9994           0
     31644 TIP3     4757     TIP3     H1       HT       0.417000       1.00800           0
     31645 TIP3     4757     TIP3     H2       HT       0.417000       1.00800           0
     31646 TIP3     4758     TIP3     OH2      OT      -0.834000       15.9994           0
     31647 TIP3     4758     TIP3     H1       HT       0.417000       1.00800           0
     31648 TIP3     4758     TIP3     H2       HT       0.417000       1.00800           0
     31649 TIP3     4759     TIP3     OH2      OT      -0.834000       15.9994           0
     31650 TIP3     4759     TIP3     H1       HT       0.417000       1.00800           0
     31651 TIP3     4759     TIP3     H2       HT       0.417000       1.00800           0
     31652 TIP3     4760     TIP3     OH2      OT      -0.834000       15.9994           0
     31653 TIP3     4760     TIP3     H1       HT       0.417000       1.00800           0
     31654 TIP3     4760     TIP3     H2       HT       0.417000       1.00800           0
     31655 TIP3     4761     TIP3     OH2      OT      -0.834000       15.9994           0
     31656 TIP3     4761     TIP3     H1       HT       0.417000       1.00800           0
     31657 TIP3     4761     TIP3     H2       HT       0.417000       1.00800           0
     31658 TIP3     4762     TIP3     OH2      OT      -0.834000       15.9994           0
     31659 TIP3     4762     TIP3     H1       HT       0.417000       1.00800           0
     31660 TIP3     4762     TIP3     H2       HT       0.417000       1.00800           0
     31661 TIP3     4763     TIP3     OH2      OT      -0.834000       15.9994           0
     31662 TIP3     4763     TIP3     H1       HT       0.417000       1.00800           0
     31663 TIP3     4763     TIP3     H2       HT       0.417000       1.00800           0
     31664 TIP3     4764     TIP3     OH2      OT      -0.834000       15.9994           0
     31665 TIP3     4764     TIP3     H1       HT       0.417000       1.00800           0
     31666 TIP3     4764     TIP3     H2       HT       0.417000       1.00800           0
     31667 TIP3     4765     TIP3     OH2      OT      -0.834000       15.9994           0
     31668 TIP3     4765     TIP3     H1       HT       0.417000       1.00800           0
     31669 TIP3     4765     TIP3     H2       HT       0.417000       1.00800           0
     31670 TIP3     4766     TIP3     OH2      OT      -0.834000       15.9994           0
     31671 TIP3     4766     TIP3     H1       HT       0.417000       1.00800           0
     31672 TIP3     4766     TIP3     H2       HT       0.417000       1.00800           0
     31673 TIP3     4767     TIP3     OH2      OT      -0.834000       15.9994           0
     31674 TIP3     4767     TIP3     H1       HT       0.417000       1.00800           0
     31675 TIP3     4767     TIP3     H2       HT       0.417000       1.00800           0
     31676 TIP3     4768     TIP3     OH2      OT      -0.834000       15.9994           0
     31677 TIP3     4768     TIP3     H1       HT       0.417000       1.00800           0
     31678 TIP3     4768     TIP3     H2       HT       0.417000       1.00800           0
     31679 TIP3     4769     TIP3     OH2      OT      -0.834000       15.9994           0
     31680 TIP3     4769     TIP3     H1       HT       0.417000       1.00800           0
     31681 TIP3     4769     TIP3     H2       HT       0.417000       1.00800           0
     31682 TIP3     4770     TIP3     OH2      OT      -0.834000       15.9994           0
     31683 TIP3     4770     TIP3     H1       HT       0.417000       1.00800           0
     31684 TIP3     4770     TIP3     H2       HT       0.417000       1.00800           0
     31685 TIP3     4771     TIP3     OH2      OT      -0.834000       15.9994           0
     31686 TIP3     4771     TIP3     H1       HT       0.417000       1.00800           0
     31687 TIP3     4771     TIP3     H2       HT       0.417000       1.00800           0
     31688 TIP3     4772     TIP3     OH2      OT      -0.834000       15.9994           0
     31689 TIP3     4772     TIP3     H1       HT       0.417000       1.00800           0
     31690 TIP3     4772     TIP3     H2       HT       0.417000       1.00800           0
     31691 TIP3     4773     TIP3     OH2      OT      -0.834000       15.9994           0
     31692 TIP3     4773     TIP3     H1       HT       0.417000       1.00800           0
     31693 TIP3     4773     TIP3     H2       HT       0.417000       1.00800           0
     31694 TIP3     4774     TIP3     OH2      OT      -0.834000       15.9994           0
     31695 TIP3     4774     TIP3     H1       HT       0.417000       1.00800           0
     31696 TIP3     4774     TIP3     H2       HT       0.417000       1.00800           0
     31697 TIP3     4775     TIP3     OH2      OT      -0.834000       15.9994           0
     31698 TIP3     4775     TIP3     H1       HT       0.417000       1.00800           0
     31699 TIP3     4775     TIP3     H2       HT       0.417000       1.00800           0
     31700 TIP3     4776     TIP3     OH2      OT      -0.834000       15.9994           0
     31701 TIP3     4776     TIP3     H1       HT       0.417000       1.00800           0
     31702 TIP3     4776     TIP3     H2       HT       0.417000       1.00800           0
     31703 TIP3     4777     TIP3     OH2      OT      -0.834000       15.9994           0
     31704 TIP3     4777     TIP3     H1       HT       0.417000       1.00800           0
     31705 TIP3     4777     TIP3     H2       HT       0.417000       1.00800           0
     31706 TIP3     4778     TIP3     OH2      OT      -0.834000       15.9994           0
     31707 TIP3     4778     TIP3     H1       HT       0.417000       1.00800           0
     31708 TIP3     4778     TIP3     H2       HT       0.417000       1.00800           0
     31709 TIP3     4779     TIP3     OH2      OT      -0.834000       15.9994           0
     31710 TIP3     4779     TIP3     H1       HT       0.417000       1.00800           0
     31711 TIP3     4779     TIP3     H2       HT       0.417000       1.00800           0
     31712 TIP3     4780     TIP3     OH2      OT      -0.834000       15.9994           0
     31713 TIP3     4780     TIP3     H1       HT       0.417000       1.00800           0
     31714 TIP3     4780     TIP3     H2       HT       0.417000       1.00800           0
     31715 TIP3     4781     TIP3     OH2      OT      -0.834000       15.9994           0
     31716 TIP3     4781     TIP3     H1       HT       0.417000       1.00800           0
     31717 TIP3     4781     TIP3     H2       HT       0.417000       1.00800           0
     31718 TIP3     4782     TIP3     OH2      OT      -0.834000       15.9994           0
     31719 TIP3     4782     TIP3     H1       HT       0.417000       1.00800           0
     31720 TIP3     4782     TIP3     H2       HT       0.417000       1.00800           0
     31721 TIP3     4783     TIP3     OH2      OT      -0.834000       15.9994           0
     31722 TIP3     4783     TIP3     H1       HT       0.417000       1.00800           0
     31723 TIP3     4783     TIP3     H2       HT       0.417000       1.00800           0
     31724 TIP3     4784     TIP3     OH2      OT      -0.834000       15.9994           0
     31725 TIP3     4784     TIP3     H1       HT       0.417000       1.00800           0
     31726 TIP3     4784     TIP3     H2       HT       0.417000       1.00800           0
     31727 TIP3     4785     TIP3     OH2      OT      -0.834000       15.9994           0
     31728 TIP3     4785     TIP3     H1       HT       0.417000       1.00800           0
     31729 TIP3     4785     TIP3     H2       HT       0.417000       1.00800           0
     31730 TIP3     4786     TIP3     OH2      OT      -0.834000       15.9994           0
     31731 TIP3     4786     TIP3     H1       HT       0.417000       1.00800           0
     31732 TIP3     4786     TIP3     H2       HT       0.417000       1.00800           0
     31733 TIP3     4787     TIP3     OH2      OT      -0.834000       15.9994           0
     31734 TIP3     4787     TIP3     H1       HT       0.417000       1.00800           0
     31735 TIP3     4787     TIP3     H2       HT       0.417000       1.00800           0
     31736 TIP3     4788     TIP3     OH2      OT      -0.834000       15.9994           0
     31737 TIP3     4788     TIP3     H1       HT       0.417000       1.00800           0
     31738 TIP3     4788     TIP3     H2       HT       0.417000       1.00800           0
     31739 TIP3     4789     TIP3     OH2      OT      -0.834000       15.9994           0
     31740 TIP3     4789     TIP3     H1       HT       0.417000       1.00800           0
     31741 TIP3     4789     TIP3     H2       HT       0.417000       1.00800           0
     31742 TIP3     4790     TIP3     OH2      OT      -0.834000       15.9994           0
     31743 TIP3     4790     TIP3     H1       HT       0.417000       1.00800           0
     31744 TIP3     4790     TIP3     H2       HT       0.417000       1.00800           0
     31745 TIP3     4791     TIP3     OH2      OT      -0.834000       15.9994           0
     31746 TIP3     4791     TIP3     H1       HT       0.417000       1.00800           0
     31747 TIP3     4791     TIP3     H2       HT       0.417000       1.00800           0
     31748 TIP3     4792     TIP3     OH2      OT      -0.834000       15.9994           0
     31749 TIP3     4792     TIP3     H1       HT       0.417000       1.00800           0
     31750 TIP3     4792     TIP3     H2       HT       0.417000       1.00800           0
     31751 TIP3     4793     TIP3     OH2      OT      -0.834000       15.9994           0
     31752 TIP3     4793     TIP3     H1       HT       0.417000       1.00800           0
     31753 TIP3     4793     TIP3     H2       HT       0.417000       1.00800           0
     31754 TIP3     4794     TIP3     OH2      OT      -0.834000       15.9994           0
     31755 TIP3     4794     TIP3     H1       HT       0.417000       1.00800           0
     31756 TIP3     4794     TIP3     H2       HT       0.417000       1.00800           0
     31757 TIP3     4795     TIP3     OH2      OT      -0.834000       15.9994           0
     31758 TIP3     4795     TIP3     H1       HT       0.417000       1.00800           0
     31759 TIP3     4795     TIP3     H2       HT       0.417000       1.00800           0
     31760 TIP3     4796     TIP3     OH2      OT      -0.834000       15.9994           0
     31761 TIP3     4796     TIP3     H1       HT       0.417000       1.00800           0
     31762 TIP3     4796     TIP3     H2       HT       0.417000       1.00800           0
     31763 TIP3     4797     TIP3     OH2      OT      -0.834000       15.9994           0
     31764 TIP3     4797     TIP3     H1       HT       0.417000       1.00800           0
     31765 TIP3     4797     TIP3     H2       HT       0.417000       1.00800           0
     31766 TIP3     4798     TIP3     OH2      OT      -0.834000       15.9994           0
     31767 TIP3     4798     TIP3     H1       HT       0.417000       1.00800           0
     31768 TIP3     4798     TIP3     H2       HT       0.417000       1.00800           0
     31769 TIP3     4799     TIP3     OH2      OT      -0.834000       15.9994           0
     31770 TIP3     4799     TIP3     H1       HT       0.417000       1.00800           0
     31771 TIP3     4799     TIP3     H2       HT       0.417000       1.00800           0
     31772 TIP3     4800     TIP3     OH2      OT      -0.834000       15.9994           0
     31773 TIP3     4800     TIP3     H1       HT       0.417000       1.00800           0
     31774 TIP3     4800     TIP3     H2       HT       0.417000       1.00800           0
     31775 TIP3     4801     TIP3     OH2      OT      -0.834000       15.9994           0
     31776 TIP3     4801     TIP3     H1       HT       0.417000       1.00800           0
     31777 TIP3     4801     TIP3     H2       HT       0.417000       1.00800           0
     31778 TIP3     4802     TIP3     OH2      OT      -0.834000       15.9994           0
     31779 TIP3     4802     TIP3     H1       HT       0.417000       1.00800           0
     31780 TIP3     4802     TIP3     H2       HT       0.417000       1.00800           0
     31781 TIP3     4803     TIP3     OH2      OT      -0.834000       15.9994           0
     31782 TIP3     4803     TIP3     H1       HT       0.417000       1.00800           0
     31783 TIP3     4803     TIP3     H2       HT       0.417000       1.00800           0
     31784 TIP3     4804     TIP3     OH2      OT      -0.834000       15.9994           0
     31785 TIP3     4804     TIP3     H1       HT       0.417000       1.00800           0
     31786 TIP3     4804     TIP3     H2       HT       0.417000       1.00800           0
     31787 TIP3     4805     TIP3     OH2      OT      -0.834000       15.9994           0
     31788 TIP3     4805     TIP3     H1       HT       0.417000       1.00800           0
     31789 TIP3     4805     TIP3     H2       HT       0.417000       1.00800           0
     31790 TIP3     4806     TIP3     OH2      OT      -0.834000       15.9994           0
     31791 TIP3     4806     TIP3     H1       HT       0.417000       1.00800           0
     31792 TIP3     4806     TIP3     H2       HT       0.417000       1.00800           0
     31793 TIP3     4807     TIP3     OH2      OT      -0.834000       15.9994           0
     31794 TIP3     4807     TIP3     H1       HT       0.417000       1.00800           0
     31795 TIP3     4807     TIP3     H2       HT       0.417000       1.00800           0
     31796 TIP3     4808     TIP3     OH2      OT      -0.834000       15.9994           0
     31797 TIP3     4808     TIP3     H1       HT       0.417000       1.00800           0
     31798 TIP3     4808     TIP3     H2       HT       0.417000       1.00800           0
     31799 TIP3     4809     TIP3     OH2      OT      -0.834000       15.9994           0
     31800 TIP3     4809     TIP3     H1       HT       0.417000       1.00800           0
     31801 TIP3     4809     TIP3     H2       HT       0.417000       1.00800           0
     31802 TIP3     4810     TIP3     OH2      OT      -0.834000       15.9994           0
     31803 TIP3     4810     TIP3     H1       HT       0.417000       1.00800           0
     31804 TIP3     4810     TIP3     H2       HT       0.417000       1.00800           0
     31805 TIP3     4811     TIP3     OH2      OT      -0.834000       15.9994           0
     31806 TIP3     4811     TIP3     H1       HT       0.417000       1.00800           0
     31807 TIP3     4811     TIP3     H2       HT       0.417000       1.00800           0
     31808 TIP3     4812     TIP3     OH2      OT      -0.834000       15.9994           0
     31809 TIP3     4812     TIP3     H1       HT       0.417000       1.00800           0
     31810 TIP3     4812     TIP3     H2       HT       0.417000       1.00800           0
     31811 TIP3     4813     TIP3     OH2      OT      -0.834000       15.9994           0
     31812 TIP3     4813     TIP3     H1       HT       0.417000       1.00800           0
     31813 TIP3     4813     TIP3     H2       HT       0.417000       1.00800           0
     31814 TIP3     4814     TIP3     OH2      OT      -0.834000       15.9994           0
     31815 TIP3     4814     TIP3     H1       HT       0.417000       1.00800           0
     31816 TIP3     4814     TIP3     H2       HT       0.417000       1.00800           0
     31817 TIP3     4815     TIP3     OH2      OT      -0.834000       15.9994           0
     31818 TIP3     4815     TIP3     H1       HT       0.417000       1.00800           0
     31819 TIP3     4815     TIP3     H2       HT       0.417000       1.00800           0
     31820 TIP3     4816     TIP3     OH2      OT      -0.834000       15.9994           0
     31821 TIP3     4816     TIP3     H1       HT       0.417000       1.00800           0
     31822 TIP3     4816     TIP3     H2       HT       0.417000       1.00800           0
     31823 TIP3     4817     TIP3     OH2      OT      -0.834000       15.9994           0
     31824 TIP3     4817     TIP3     H1       HT       0.417000       1.00800           0
     31825 TIP3     4817     TIP3     H2       HT       0.417000       1.00800           0
     31826 TIP3     4818     TIP3     OH2      OT      -0.834000       15.9994           0
     31827 TIP3     4818     TIP3     H1       HT       0.417000       1.00800           0
     31828 TIP3     4818     TIP3     H2       HT       0.417000       1.00800           0
     31829 TIP3     4819     TIP3     OH2      OT      -0.834000       15.9994           0
     31830 TIP3     4819     TIP3     H1       HT       0.417000       1.00800           0
     31831 TIP3     4819     TIP3     H2       HT       0.417000       1.00800           0
     31832 TIP3     4820     TIP3     OH2      OT      -0.834000       15.9994           0
     31833 TIP3     4820     TIP3     H1       HT       0.417000       1.00800           0
     31834 TIP3     4820     TIP3     H2       HT       0.417000       1.00800           0
     31835 TIP3     4821     TIP3     OH2      OT      -0.834000       15.9994           0
     31836 TIP3     4821     TIP3     H1       HT       0.417000       1.00800           0
     31837 TIP3     4821     TIP3     H2       HT       0.417000       1.00800           0
     31838 TIP3     4822     TIP3     OH2      OT      -0.834000       15.9994           0
     31839 TIP3     4822     TIP3     H1       HT       0.417000       1.00800           0
     31840 TIP3     4822     TIP3     H2       HT       0.417000       1.00800           0
     31841 TIP3     4823     TIP3     OH2      OT      -0.834000       15.9994           0
     31842 TIP3     4823     TIP3     H1       HT       0.417000       1.00800           0
     31843 TIP3     4823     TIP3     H2       HT       0.417000       1.00800           0
     31844 TIP3     4824     TIP3     OH2      OT      -0.834000       15.9994           0
     31845 TIP3     4824     TIP3     H1       HT       0.417000       1.00800           0
     31846 TIP3     4824     TIP3     H2       HT       0.417000       1.00800           0
     31847 TIP3     4825     TIP3     OH2      OT      -0.834000       15.9994           0
     31848 TIP3     4825     TIP3     H1       HT       0.417000       1.00800           0
     31849 TIP3     4825     TIP3     H2       HT       0.417000       1.00800           0
     31850 TIP3     4826     TIP3     OH2      OT      -0.834000       15.9994           0
     31851 TIP3     4826     TIP3     H1       HT       0.417000       1.00800           0
     31852 TIP3     4826     TIP3     H2       HT       0.417000       1.00800           0
     31853 TIP3     4827     TIP3     OH2      OT      -0.834000       15.9994           0
     31854 TIP3     4827     TIP3     H1       HT       0.417000       1.00800           0
     31855 TIP3     4827     TIP3     H2       HT       0.417000       1.00800           0
     31856 TIP3     4828     TIP3     OH2      OT      -0.834000       15.9994           0
     31857 TIP3     4828     TIP3     H1       HT       0.417000       1.00800           0
     31858 TIP3     4828     TIP3     H2       HT       0.417000       1.00800           0
     31859 TIP3     4829     TIP3     OH2      OT      -0.834000       15.9994           0
     31860 TIP3     4829     TIP3     H1       HT       0.417000       1.00800           0
     31861 TIP3     4829     TIP3     H2       HT       0.417000       1.00800           0
     31862 TIP3     4830     TIP3     OH2      OT      -0.834000       15.9994           0
     31863 TIP3     4830     TIP3     H1       HT       0.417000       1.00800           0
     31864 TIP3     4830     TIP3     H2       HT       0.417000       1.00800           0
     31865 TIP3     4831     TIP3     OH2      OT      -0.834000       15.9994           0
     31866 TIP3     4831     TIP3     H1       HT       0.417000       1.00800           0
     31867 TIP3     4831     TIP3     H2       HT       0.417000       1.00800           0
     31868 TIP3     4832     TIP3     OH2      OT      -0.834000       15.9994           0
     31869 TIP3     4832     TIP3     H1       HT       0.417000       1.00800           0
     31870 TIP3     4832     TIP3     H2       HT       0.417000       1.00800           0
     31871 TIP3     4833     TIP3     OH2      OT      -0.834000       15.9994           0
     31872 TIP3     4833     TIP3     H1       HT       0.417000       1.00800           0
     31873 TIP3     4833     TIP3     H2       HT       0.417000       1.00800           0
     31874 TIP3     4834     TIP3     OH2      OT      -0.834000       15.9994           0
     31875 TIP3     4834     TIP3     H1       HT       0.417000       1.00800           0
     31876 TIP3     4834     TIP3     H2       HT       0.417000       1.00800           0
     31877 TIP3     4835     TIP3     OH2      OT      -0.834000       15.9994           0
     31878 TIP3     4835     TIP3     H1       HT       0.417000       1.00800           0
     31879 TIP3     4835     TIP3     H2       HT       0.417000       1.00800           0
     31880 TIP3     4836     TIP3     OH2      OT      -0.834000       15.9994           0
     31881 TIP3     4836     TIP3     H1       HT       0.417000       1.00800           0
     31882 TIP3     4836     TIP3     H2       HT       0.417000       1.00800           0
     31883 TIP3     4837     TIP3     OH2      OT      -0.834000       15.9994           0
     31884 TIP3     4837     TIP3     H1       HT       0.417000       1.00800           0
     31885 TIP3     4837     TIP3     H2       HT       0.417000       1.00800           0
     31886 TIP3     4838     TIP3     OH2      OT      -0.834000       15.9994           0
     31887 TIP3     4838     TIP3     H1       HT       0.417000       1.00800           0
     31888 TIP3     4838     TIP3     H2       HT       0.417000       1.00800           0
     31889 TIP3     4839     TIP3     OH2      OT      -0.834000       15.9994           0
     31890 TIP3     4839     TIP3     H1       HT       0.417000       1.00800           0
     31891 TIP3     4839     TIP3     H2       HT       0.417000       1.00800           0
     31892 TIP3     4840     TIP3     OH2      OT      -0.834000       15.9994           0
     31893 TIP3     4840     TIP3     H1       HT       0.417000       1.00800           0
     31894 TIP3     4840     TIP3     H2       HT       0.417000       1.00800           0
     31895 TIP3     4841     TIP3     OH2      OT      -0.834000       15.9994           0
     31896 TIP3     4841     TIP3     H1       HT       0.417000       1.00800           0
     31897 TIP3     4841     TIP3     H2       HT       0.417000       1.00800           0
     31898 TIP3     4842     TIP3     OH2      OT      -0.834000       15.9994           0
     31899 TIP3     4842     TIP3     H1       HT       0.417000       1.00800           0
     31900 TIP3     4842     TIP3     H2       HT       0.417000       1.00800           0
     31901 TIP3     4843     TIP3     OH2      OT      -0.834000       15.9994           0
     31902 TIP3     4843     TIP3     H1       HT       0.417000       1.00800           0
     31903 TIP3     4843     TIP3     H2       HT       0.417000       1.00800           0
     31904 TIP3     4844     TIP3     OH2      OT      -0.834000       15.9994           0
     31905 TIP3     4844     TIP3     H1       HT       0.417000       1.00800           0
     31906 TIP3     4844     TIP3     H2       HT       0.417000       1.00800           0
     31907 TIP3     4845     TIP3     OH2      OT      -0.834000       15.9994           0
     31908 TIP3     4845     TIP3     H1       HT       0.417000       1.00800           0
     31909 TIP3     4845     TIP3     H2       HT       0.417000       1.00800           0
     31910 TIP3     4846     TIP3     OH2      OT      -0.834000       15.9994           0
     31911 TIP3     4846     TIP3     H1       HT       0.417000       1.00800           0
     31912 TIP3     4846     TIP3     H2       HT       0.417000       1.00800           0
     31913 TIP3     4847     TIP3     OH2      OT      -0.834000       15.9994           0
     31914 TIP3     4847     TIP3     H1       HT       0.417000       1.00800           0
     31915 TIP3     4847     TIP3     H2       HT       0.417000       1.00800           0
     31916 TIP3     4848     TIP3     OH2      OT      -0.834000       15.9994           0
     31917 TIP3     4848     TIP3     H1       HT       0.417000       1.00800           0
     31918 TIP3     4848     TIP3     H2       HT       0.417000       1.00800           0
     31919 TIP3     4849     TIP3     OH2      OT      -0.834000       15.9994           0
     31920 TIP3     4849     TIP3     H1       HT       0.417000       1.00800           0
     31921 TIP3     4849     TIP3     H2       HT       0.417000       1.00800           0
     31922 TIP3     4850     TIP3     OH2      OT      -0.834000       15.9994           0
     31923 TIP3     4850     TIP3     H1       HT       0.417000       1.00800           0
     31924 TIP3     4850     TIP3     H2       HT       0.417000       1.00800           0
     31925 TIP3     4851     TIP3     OH2      OT      -0.834000       15.9994           0
     31926 TIP3     4851     TIP3     H1       HT       0.417000       1.00800           0
     31927 TIP3     4851     TIP3     H2       HT       0.417000       1.00800           0
     31928 TIP3     4852     TIP3     OH2      OT      -0.834000       15.9994           0
     31929 TIP3     4852     TIP3     H1       HT       0.417000       1.00800           0
     31930 TIP3     4852     TIP3     H2       HT       0.417000       1.00800           0
     31931 TIP3     4853     TIP3     OH2      OT      -0.834000       15.9994           0
     31932 TIP3     4853     TIP3     H1       HT       0.417000       1.00800           0
     31933 TIP3     4853     TIP3     H2       HT       0.417000       1.00800           0
     31934 TIP3     4854     TIP3     OH2      OT      -0.834000       15.9994           0
     31935 TIP3     4854     TIP3     H1       HT       0.417000       1.00800           0
     31936 TIP3     4854     TIP3     H2       HT       0.417000       1.00800           0
     31937 TIP3     4855     TIP3     OH2      OT      -0.834000       15.9994           0
     31938 TIP3     4855     TIP3     H1       HT       0.417000       1.00800           0
     31939 TIP3     4855     TIP3     H2       HT       0.417000       1.00800           0
     31940 TIP3     4856     TIP3     OH2      OT      -0.834000       15.9994           0
     31941 TIP3     4856     TIP3     H1       HT       0.417000       1.00800           0
     31942 TIP3     4856     TIP3     H2       HT       0.417000       1.00800           0
     31943 TIP3     4857     TIP3     OH2      OT      -0.834000       15.9994           0
     31944 TIP3     4857     TIP3     H1       HT       0.417000       1.00800           0
     31945 TIP3     4857     TIP3     H2       HT       0.417000       1.00800           0
     31946 TIP3     4858     TIP3     OH2      OT      -0.834000       15.9994           0
     31947 TIP3     4858     TIP3     H1       HT       0.417000       1.00800           0
     31948 TIP3     4858     TIP3     H2       HT       0.417000       1.00800           0
     31949 TIP3     4859     TIP3     OH2      OT      -0.834000       15.9994           0
     31950 TIP3     4859     TIP3     H1       HT       0.417000       1.00800           0
     31951 TIP3     4859     TIP3     H2       HT       0.417000       1.00800           0
     31952 TIP3     4860     TIP3     OH2      OT      -0.834000       15.9994           0
     31953 TIP3     4860     TIP3     H1       HT       0.417000       1.00800           0
     31954 TIP3     4860     TIP3     H2       HT       0.417000       1.00800           0
     31955 TIP3     4861     TIP3     OH2      OT      -0.834000       15.9994           0
     31956 TIP3     4861     TIP3     H1       HT       0.417000       1.00800           0
     31957 TIP3     4861     TIP3     H2       HT       0.417000       1.00800           0
     31958 TIP3     4862     TIP3     OH2      OT      -0.834000       15.9994           0
     31959 TIP3     4862     TIP3     H1       HT       0.417000       1.00800           0
     31960 TIP3     4862     TIP3     H2       HT       0.417000       1.00800           0
     31961 TIP3     4863     TIP3     OH2      OT      -0.834000       15.9994           0
     31962 TIP3     4863     TIP3     H1       HT       0.417000       1.00800           0
     31963 TIP3     4863     TIP3     H2       HT       0.417000       1.00800           0
     31964 TIP3     4864     TIP3     OH2      OT      -0.834000       15.9994           0
     31965 TIP3     4864     TIP3     H1       HT       0.417000       1.00800           0
     31966 TIP3     4864     TIP3     H2       HT       0.417000       1.00800           0
     31967 TIP3     4865     TIP3     OH2      OT      -0.834000       15.9994           0
     31968 TIP3     4865     TIP3     H1       HT       0.417000       1.00800           0
     31969 TIP3     4865     TIP3     H2       HT       0.417000       1.00800           0
     31970 TIP3     4866     TIP3     OH2      OT      -0.834000       15.9994           0
     31971 TIP3     4866     TIP3     H1       HT       0.417000       1.00800           0
     31972 TIP3     4866     TIP3     H2       HT       0.417000       1.00800           0
     31973 TIP3     4867     TIP3     OH2      OT      -0.834000       15.9994           0
     31974 TIP3     4867     TIP3     H1       HT       0.417000       1.00800           0
     31975 TIP3     4867     TIP3     H2       HT       0.417000       1.00800           0
     31976 TIP3     4868     TIP3     OH2      OT      -0.834000       15.9994           0
     31977 TIP3     4868     TIP3     H1       HT       0.417000       1.00800           0
     31978 TIP3     4868     TIP3     H2       HT       0.417000       1.00800           0
     31979 TIP3     4869     TIP3     OH2      OT      -0.834000       15.9994           0
     31980 TIP3     4869     TIP3     H1       HT       0.417000       1.00800           0
     31981 TIP3     4869     TIP3     H2       HT       0.417000       1.00800           0
     31982 TIP3     4870     TIP3     OH2      OT      -0.834000       15.9994           0
     31983 TIP3     4870     TIP3     H1       HT       0.417000       1.00800           0
     31984 TIP3     4870     TIP3     H2       HT       0.417000       1.00800           0
     31985 TIP3     4871     TIP3     OH2      OT      -0.834000       15.9994           0
     31986 TIP3     4871     TIP3     H1       HT       0.417000       1.00800           0
     31987 TIP3     4871     TIP3     H2       HT       0.417000       1.00800           0
     31988 TIP3     4872     TIP3     OH2      OT      -0.834000       15.9994           0
     31989 TIP3     4872     TIP3     H1       HT       0.417000       1.00800           0
     31990 TIP3     4872     TIP3     H2       HT       0.417000       1.00800           0
     31991 TIP3     4873     TIP3     OH2      OT      -0.834000       15.9994           0
     31992 TIP3     4873     TIP3     H1       HT       0.417000       1.00800           0
     31993 TIP3     4873     TIP3     H2       HT       0.417000       1.00800           0
     31994 TIP3     4874     TIP3     OH2      OT      -0.834000       15.9994           0
     31995 TIP3     4874     TIP3     H1       HT       0.417000       1.00800           0
     31996 TIP3     4874     TIP3     H2       HT       0.417000       1.00800           0
     31997 TIP3     4875     TIP3     OH2      OT      -0.834000       15.9994           0
     31998 TIP3     4875     TIP3     H1       HT       0.417000       1.00800           0
     31999 TIP3     4875     TIP3     H2       HT       0.417000       1.00800           0
     32000 TIP3     4876     TIP3     OH2      OT      -0.834000       15.9994           0
     32001 TIP3     4876     TIP3     H1       HT       0.417000       1.00800           0
     32002 TIP3     4876     TIP3     H2       HT       0.417000       1.00800           0
     32003 TIP3     4877     TIP3     OH2      OT      -0.834000       15.9994           0
     32004 TIP3     4877     TIP3     H1       HT       0.417000       1.00800           0
     32005 TIP3     4877     TIP3     H2       HT       0.417000       1.00800           0
     32006 TIP3     4878     TIP3     OH2      OT      -0.834000       15.9994           0
     32007 TIP3     4878     TIP3     H1       HT       0.417000       1.00800           0
     32008 TIP3     4878     TIP3     H2       HT       0.417000       1.00800           0
     32009 TIP3     4879     TIP3     OH2      OT      -0.834000       15.9994           0
     32010 TIP3     4879     TIP3     H1       HT       0.417000       1.00800           0
     32011 TIP3     4879     TIP3     H2       HT       0.417000       1.00800           0
     32012 TIP3     4880     TIP3     OH2      OT      -0.834000       15.9994           0
     32013 TIP3     4880     TIP3     H1       HT       0.417000       1.00800           0
     32014 TIP3     4880     TIP3     H2       HT       0.417000       1.00800           0
     32015 TIP3     4881     TIP3     OH2      OT      -0.834000       15.9994           0
     32016 TIP3     4881     TIP3     H1       HT       0.417000       1.00800           0
     32017 TIP3     4881     TIP3     H2       HT       0.417000       1.00800           0
     32018 TIP3     4882     TIP3     OH2      OT      -0.834000       15.9994           0
     32019 TIP3     4882     TIP3     H1       HT       0.417000       1.00800           0
     32020 TIP3     4882     TIP3     H2       HT       0.417000       1.00800           0
     32021 TIP3     4883     TIP3     OH2      OT      -0.834000       15.9994           0
     32022 TIP3     4883     TIP3     H1       HT       0.417000       1.00800           0
     32023 TIP3     4883     TIP3     H2       HT       0.417000       1.00800           0
     32024 TIP3     4884     TIP3     OH2      OT      -0.834000       15.9994           0
     32025 TIP3     4884     TIP3     H1       HT       0.417000       1.00800           0
     32026 TIP3     4884     TIP3     H2       HT       0.417000       1.00800           0
     32027 TIP3     4885     TIP3     OH2      OT      -0.834000       15.9994           0
     32028 TIP3     4885     TIP3     H1       HT       0.417000       1.00800           0
     32029 TIP3     4885     TIP3     H2       HT       0.417000       1.00800           0
     32030 TIP3     4886     TIP3     OH2      OT      -0.834000       15.9994           0
     32031 TIP3     4886     TIP3     H1       HT       0.417000       1.00800           0
     32032 TIP3     4886     TIP3     H2       HT       0.417000       1.00800           0
     32033 TIP3     4887     TIP3     OH2      OT      -0.834000       15.9994           0
     32034 TIP3     4887     TIP3     H1       HT       0.417000       1.00800           0
     32035 TIP3     4887     TIP3     H2       HT       0.417000       1.00800           0
     32036 TIP3     4888     TIP3     OH2      OT      -0.834000       15.9994           0
     32037 TIP3     4888     TIP3     H1       HT       0.417000       1.00800           0
     32038 TIP3     4888     TIP3     H2       HT       0.417000       1.00800           0
     32039 TIP3     4889     TIP3     OH2      OT      -0.834000       15.9994           0
     32040 TIP3     4889     TIP3     H1       HT       0.417000       1.00800           0
     32041 TIP3     4889     TIP3     H2       HT       0.417000       1.00800           0
     32042 TIP3     4890     TIP3     OH2      OT      -0.834000       15.9994           0
     32043 TIP3     4890     TIP3     H1       HT       0.417000       1.00800           0
     32044 TIP3     4890     TIP3     H2       HT       0.417000       1.00800           0
     32045 TIP3     4891     TIP3     OH2      OT      -0.834000       15.9994           0
     32046 TIP3     4891     TIP3     H1       HT       0.417000       1.00800           0
     32047 TIP3     4891     TIP3     H2       HT       0.417000       1.00800           0
     32048 TIP3     4892     TIP3     OH2      OT      -0.834000       15.9994           0
     32049 TIP3     4892     TIP3     H1       HT       0.417000       1.00800           0
     32050 TIP3     4892     TIP3     H2       HT       0.417000       1.00800           0
     32051 TIP3     4893     TIP3     OH2      OT      -0.834000       15.9994           0
     32052 TIP3     4893     TIP3     H1       HT       0.417000       1.00800           0
     32053 TIP3     4893     TIP3     H2       HT       0.417000       1.00800           0
     32054 TIP3     4894     TIP3     OH2      OT      -0.834000       15.9994           0
     32055 TIP3     4894     TIP3     H1       HT       0.417000       1.00800           0
     32056 TIP3     4894     TIP3     H2       HT       0.417000       1.00800           0
     32057 TIP3     4895     TIP3     OH2      OT      -0.834000       15.9994           0
     32058 TIP3     4895     TIP3     H1       HT       0.417000       1.00800           0
     32059 TIP3     4895     TIP3     H2       HT       0.417000       1.00800           0
     32060 TIP3     4896     TIP3     OH2      OT      -0.834000       15.9994           0
     32061 TIP3     4896     TIP3     H1       HT       0.417000       1.00800           0
     32062 TIP3     4896     TIP3     H2       HT       0.417000       1.00800           0
     32063 TIP3     4897     TIP3     OH2      OT      -0.834000       15.9994           0
     32064 TIP3     4897     TIP3     H1       HT       0.417000       1.00800           0
     32065 TIP3     4897     TIP3     H2       HT       0.417000       1.00800           0
     32066 TIP3     4898     TIP3     OH2      OT      -0.834000       15.9994           0
     32067 TIP3     4898     TIP3     H1       HT       0.417000       1.00800           0
     32068 TIP3     4898     TIP3     H2       HT       0.417000       1.00800           0
     32069 TIP3     4899     TIP3     OH2      OT      -0.834000       15.9994           0
     32070 TIP3     4899     TIP3     H1       HT       0.417000       1.00800           0
     32071 TIP3     4899     TIP3     H2       HT       0.417000       1.00800           0
     32072 TIP3     4900     TIP3     OH2      OT      -0.834000       15.9994           0
     32073 TIP3     4900     TIP3     H1       HT       0.417000       1.00800           0
     32074 TIP3     4900     TIP3     H2       HT       0.417000       1.00800           0
     32075 TIP3     4901     TIP3     OH2      OT      -0.834000       15.9994           0
     32076 TIP3     4901     TIP3     H1       HT       0.417000       1.00800           0
     32077 TIP3     4901     TIP3     H2       HT       0.417000       1.00800           0
     32078 TIP3     4902     TIP3     OH2      OT      -0.834000       15.9994           0
     32079 TIP3     4902     TIP3     H1       HT       0.417000       1.00800           0
     32080 TIP3     4902     TIP3     H2       HT       0.417000       1.00800           0
     32081 TIP3     4903     TIP3     OH2      OT      -0.834000       15.9994           0
     32082 TIP3     4903     TIP3     H1       HT       0.417000       1.00800           0
     32083 TIP3     4903     TIP3     H2       HT       0.417000       1.00800           0
     32084 TIP3     4904     TIP3     OH2      OT      -0.834000       15.9994           0
     32085 TIP3     4904     TIP3     H1       HT       0.417000       1.00800           0
     32086 TIP3     4904     TIP3     H2       HT       0.417000       1.00800           0
     32087 TIP3     4905     TIP3     OH2      OT      -0.834000       15.9994           0
     32088 TIP3     4905     TIP3     H1       HT       0.417000       1.00800           0
     32089 TIP3     4905     TIP3     H2       HT       0.417000       1.00800           0
     32090 TIP3     4906     TIP3     OH2      OT      -0.834000       15.9994           0
     32091 TIP3     4906     TIP3     H1       HT       0.417000       1.00800           0
     32092 TIP3     4906     TIP3     H2       HT       0.417000       1.00800           0
     32093 TIP3     4907     TIP3     OH2      OT      -0.834000       15.9994           0
     32094 TIP3     4907     TIP3     H1       HT       0.417000       1.00800           0
     32095 TIP3     4907     TIP3     H2       HT       0.417000       1.00800           0
     32096 TIP3     4908     TIP3     OH2      OT      -0.834000       15.9994           0
     32097 TIP3     4908     TIP3     H1       HT       0.417000       1.00800           0
     32098 TIP3     4908     TIP3     H2       HT       0.417000       1.00800           0
     32099 TIP3     4909     TIP3     OH2      OT      -0.834000       15.9994           0
     32100 TIP3     4909     TIP3     H1       HT       0.417000       1.00800           0
     32101 TIP3     4909     TIP3     H2       HT       0.417000       1.00800           0
     32102 TIP3     4910     TIP3     OH2      OT      -0.834000       15.9994           0
     32103 TIP3     4910     TIP3     H1       HT       0.417000       1.00800           0
     32104 TIP3     4910     TIP3     H2       HT       0.417000       1.00800           0
     32105 TIP3     4911     TIP3     OH2      OT      -0.834000       15.9994           0
     32106 TIP3     4911     TIP3     H1       HT       0.417000       1.00800           0
     32107 TIP3     4911     TIP3     H2       HT       0.417000       1.00800           0
     32108 TIP3     4912     TIP3     OH2      OT      -0.834000       15.9994           0
     32109 TIP3     4912     TIP3     H1       HT       0.417000       1.00800           0
     32110 TIP3     4912     TIP3     H2       HT       0.417000       1.00800           0
     32111 TIP3     4913     TIP3     OH2      OT      -0.834000       15.9994           0
     32112 TIP3     4913     TIP3     H1       HT       0.417000       1.00800           0
     32113 TIP3     4913     TIP3     H2       HT       0.417000       1.00800           0
     32114 TIP3     4914     TIP3     OH2      OT      -0.834000       15.9994           0
     32115 TIP3     4914     TIP3     H1       HT       0.417000       1.00800           0
     32116 TIP3     4914     TIP3     H2       HT       0.417000       1.00800           0
     32117 TIP3     4915     TIP3     OH2      OT      -0.834000       15.9994           0
     32118 TIP3     4915     TIP3     H1       HT       0.417000       1.00800           0
     32119 TIP3     4915     TIP3     H2       HT       0.417000       1.00800           0
     32120 TIP3     4916     TIP3     OH2      OT      -0.834000       15.9994           0
     32121 TIP3     4916     TIP3     H1       HT       0.417000       1.00800           0
     32122 TIP3     4916     TIP3     H2       HT       0.417000       1.00800           0
     32123 TIP3     4917     TIP3     OH2      OT      -0.834000       15.9994           0
     32124 TIP3     4917     TIP3     H1       HT       0.417000       1.00800           0
     32125 TIP3     4917     TIP3     H2       HT       0.417000       1.00800           0
     32126 TIP3     4918     TIP3     OH2      OT      -0.834000       15.9994           0
     32127 TIP3     4918     TIP3     H1       HT       0.417000       1.00800           0
     32128 TIP3     4918     TIP3     H2       HT       0.417000       1.00800           0
     32129 TIP3     4919     TIP3     OH2      OT      -0.834000       15.9994           0
     32130 TIP3     4919     TIP3     H1       HT       0.417000       1.00800           0
     32131 TIP3     4919     TIP3     H2       HT       0.417000       1.00800           0
     32132 TIP3     4920     TIP3     OH2      OT      -0.834000       15.9994           0
     32133 TIP3     4920     TIP3     H1       HT       0.417000       1.00800           0
     32134 TIP3     4920     TIP3     H2       HT       0.417000       1.00800           0
     32135 TIP3     4921     TIP3     OH2      OT      -0.834000       15.9994           0
     32136 TIP3     4921     TIP3     H1       HT       0.417000       1.00800           0
     32137 TIP3     4921     TIP3     H2       HT       0.417000       1.00800           0
     32138 TIP3     4922     TIP3     OH2      OT      -0.834000       15.9994           0
     32139 TIP3     4922     TIP3     H1       HT       0.417000       1.00800           0
     32140 TIP3     4922     TIP3     H2       HT       0.417000       1.00800           0
     32141 TIP3     4923     TIP3     OH2      OT      -0.834000       15.9994           0
     32142 TIP3     4923     TIP3     H1       HT       0.417000       1.00800           0
     32143 TIP3     4923     TIP3     H2       HT       0.417000       1.00800           0
     32144 TIP3     4924     TIP3     OH2      OT      -0.834000       15.9994           0
     32145 TIP3     4924     TIP3     H1       HT       0.417000       1.00800           0
     32146 TIP3     4924     TIP3     H2       HT       0.417000       1.00800           0
     32147 TIP3     4925     TIP3     OH2      OT      -0.834000       15.9994           0
     32148 TIP3     4925     TIP3     H1       HT       0.417000       1.00800           0
     32149 TIP3     4925     TIP3     H2       HT       0.417000       1.00800           0
     32150 TIP3     4926     TIP3     OH2      OT      -0.834000       15.9994           0
     32151 TIP3     4926     TIP3     H1       HT       0.417000       1.00800           0
     32152 TIP3     4926     TIP3     H2       HT       0.417000       1.00800           0
     32153 TIP3     4927     TIP3     OH2      OT      -0.834000       15.9994           0
     32154 TIP3     4927     TIP3     H1       HT       0.417000       1.00800           0
     32155 TIP3     4927     TIP3     H2       HT       0.417000       1.00800           0
     32156 TIP3     4928     TIP3     OH2      OT      -0.834000       15.9994           0
     32157 TIP3     4928     TIP3     H1       HT       0.417000       1.00800           0
     32158 TIP3     4928     TIP3     H2       HT       0.417000       1.00800           0
     32159 TIP3     4929     TIP3     OH2      OT      -0.834000       15.9994           0
     32160 TIP3     4929     TIP3     H1       HT       0.417000       1.00800           0
     32161 TIP3     4929     TIP3     H2       HT       0.417000       1.00800           0
     32162 TIP3     4930     TIP3     OH2      OT      -0.834000       15.9994           0
     32163 TIP3     4930     TIP3     H1       HT       0.417000       1.00800           0
     32164 TIP3     4930     TIP3     H2       HT       0.417000       1.00800           0
     32165 TIP3     4931     TIP3     OH2      OT      -0.834000       15.9994           0
     32166 TIP3     4931     TIP3     H1       HT       0.417000       1.00800           0
     32167 TIP3     4931     TIP3     H2       HT       0.417000       1.00800           0
     32168 TIP3     4932     TIP3     OH2      OT      -0.834000       15.9994           0
     32169 TIP3     4932     TIP3     H1       HT       0.417000       1.00800           0
     32170 TIP3     4932     TIP3     H2       HT       0.417000       1.00800           0
     32171 TIP3     4933     TIP3     OH2      OT      -0.834000       15.9994           0
     32172 TIP3     4933     TIP3     H1       HT       0.417000       1.00800           0
     32173 TIP3     4933     TIP3     H2       HT       0.417000       1.00800           0
     32174 TIP3     4934     TIP3     OH2      OT      -0.834000       15.9994           0
     32175 TIP3     4934     TIP3     H1       HT       0.417000       1.00800           0
     32176 TIP3     4934     TIP3     H2       HT       0.417000       1.00800           0
     32177 TIP3     4935     TIP3     OH2      OT      -0.834000       15.9994           0
     32178 TIP3     4935     TIP3     H1       HT       0.417000       1.00800           0
     32179 TIP3     4935     TIP3     H2       HT       0.417000       1.00800           0
     32180 TIP3     4936     TIP3     OH2      OT      -0.834000       15.9994           0
     32181 TIP3     4936     TIP3     H1       HT       0.417000       1.00800           0
     32182 TIP3     4936     TIP3     H2       HT       0.417000       1.00800           0
     32183 TIP3     4937     TIP3     OH2      OT      -0.834000       15.9994           0
     32184 TIP3     4937     TIP3     H1       HT       0.417000       1.00800           0
     32185 TIP3     4937     TIP3     H2       HT       0.417000       1.00800           0
     32186 TIP3     4938     TIP3     OH2      OT      -0.834000       15.9994           0
     32187 TIP3     4938     TIP3     H1       HT       0.417000       1.00800           0
     32188 TIP3     4938     TIP3     H2       HT       0.417000       1.00800           0
     32189 TIP3     4939     TIP3     OH2      OT      -0.834000       15.9994           0
     32190 TIP3     4939     TIP3     H1       HT       0.417000       1.00800           0
     32191 TIP3     4939     TIP3     H2       HT       0.417000       1.00800           0
     32192 TIP3     4940     TIP3     OH2      OT      -0.834000       15.9994           0
     32193 TIP3     4940     TIP3     H1       HT       0.417000       1.00800           0
     32194 TIP3     4940     TIP3     H2       HT       0.417000       1.00800           0
     32195 TIP3     4941     TIP3     OH2      OT      -0.834000       15.9994           0
     32196 TIP3     4941     TIP3     H1       HT       0.417000       1.00800           0
     32197 TIP3     4941     TIP3     H2       HT       0.417000       1.00800           0
     32198 TIP3     4942     TIP3     OH2      OT      -0.834000       15.9994           0
     32199 TIP3     4942     TIP3     H1       HT       0.417000       1.00800           0
     32200 TIP3     4942     TIP3     H2       HT       0.417000       1.00800           0
     32201 TIP3     4943     TIP3     OH2      OT      -0.834000       15.9994           0
     32202 TIP3     4943     TIP3     H1       HT       0.417000       1.00800           0
     32203 TIP3     4943     TIP3     H2       HT       0.417000       1.00800           0
     32204 TIP3     4944     TIP3     OH2      OT      -0.834000       15.9994           0
     32205 TIP3     4944     TIP3     H1       HT       0.417000       1.00800           0
     32206 TIP3     4944     TIP3     H2       HT       0.417000       1.00800           0
     32207 TIP3     4945     TIP3     OH2      OT      -0.834000       15.9994           0
     32208 TIP3     4945     TIP3     H1       HT       0.417000       1.00800           0
     32209 TIP3     4945     TIP3     H2       HT       0.417000       1.00800           0
     32210 TIP3     4946     TIP3     OH2      OT      -0.834000       15.9994           0
     32211 TIP3     4946     TIP3     H1       HT       0.417000       1.00800           0
     32212 TIP3     4946     TIP3     H2       HT       0.417000       1.00800           0
     32213 TIP3     4947     TIP3     OH2      OT      -0.834000       15.9994           0
     32214 TIP3     4947     TIP3     H1       HT       0.417000       1.00800           0
     32215 TIP3     4947     TIP3     H2       HT       0.417000       1.00800           0
     32216 TIP3     4948     TIP3     OH2      OT      -0.834000       15.9994           0
     32217 TIP3     4948     TIP3     H1       HT       0.417000       1.00800           0
     32218 TIP3     4948     TIP3     H2       HT       0.417000       1.00800           0
     32219 TIP3     4949     TIP3     OH2      OT      -0.834000       15.9994           0
     32220 TIP3     4949     TIP3     H1       HT       0.417000       1.00800           0
     32221 TIP3     4949     TIP3     H2       HT       0.417000       1.00800           0
     32222 TIP3     4950     TIP3     OH2      OT      -0.834000       15.9994           0
     32223 TIP3     4950     TIP3     H1       HT       0.417000       1.00800           0
     32224 TIP3     4950     TIP3     H2       HT       0.417000       1.00800           0
     32225 TIP3     4951     TIP3     OH2      OT      -0.834000       15.9994           0
     32226 TIP3     4951     TIP3     H1       HT       0.417000       1.00800           0
     32227 TIP3     4951     TIP3     H2       HT       0.417000       1.00800           0
     32228 TIP3     4952     TIP3     OH2      OT      -0.834000       15.9994           0
     32229 TIP3     4952     TIP3     H1       HT       0.417000       1.00800           0
     32230 TIP3     4952     TIP3     H2       HT       0.417000       1.00800           0
     32231 TIP3     4953     TIP3     OH2      OT      -0.834000       15.9994           0
     32232 TIP3     4953     TIP3     H1       HT       0.417000       1.00800           0
     32233 TIP3     4953     TIP3     H2       HT       0.417000       1.00800           0
     32234 TIP3     4954     TIP3     OH2      OT      -0.834000       15.9994           0
     32235 TIP3     4954     TIP3     H1       HT       0.417000       1.00800           0
     32236 TIP3     4954     TIP3     H2       HT       0.417000       1.00800           0
     32237 TIP3     4955     TIP3     OH2      OT      -0.834000       15.9994           0
     32238 TIP3     4955     TIP3     H1       HT       0.417000       1.00800           0
     32239 TIP3     4955     TIP3     H2       HT       0.417000       1.00800           0
     32240 TIP3     4956     TIP3     OH2      OT      -0.834000       15.9994           0
     32241 TIP3     4956     TIP3     H1       HT       0.417000       1.00800           0
     32242 TIP3     4956     TIP3     H2       HT       0.417000       1.00800           0
     32243 TIP3     4957     TIP3     OH2      OT      -0.834000       15.9994           0
     32244 TIP3     4957     TIP3     H1       HT       0.417000       1.00800           0
     32245 TIP3     4957     TIP3     H2       HT       0.417000       1.00800           0
     32246 TIP3     4958     TIP3     OH2      OT      -0.834000       15.9994           0
     32247 TIP3     4958     TIP3     H1       HT       0.417000       1.00800           0
     32248 TIP3     4958     TIP3     H2       HT       0.417000       1.00800           0
     32249 TIP3     4959     TIP3     OH2      OT      -0.834000       15.9994           0
     32250 TIP3     4959     TIP3     H1       HT       0.417000       1.00800           0
     32251 TIP3     4959     TIP3     H2       HT       0.417000       1.00800           0
     32252 TIP3     4960     TIP3     OH2      OT      -0.834000       15.9994           0
     32253 TIP3     4960     TIP3     H1       HT       0.417000       1.00800           0
     32254 TIP3     4960     TIP3     H2       HT       0.417000       1.00800           0
     32255 TIP3     4961     TIP3     OH2      OT      -0.834000       15.9994           0
     32256 TIP3     4961     TIP3     H1       HT       0.417000       1.00800           0
     32257 TIP3     4961     TIP3     H2       HT       0.417000       1.00800           0
     32258 TIP3     4962     TIP3     OH2      OT      -0.834000       15.9994           0
     32259 TIP3     4962     TIP3     H1       HT       0.417000       1.00800           0
     32260 TIP3     4962     TIP3     H2       HT       0.417000       1.00800           0
     32261 TIP3     4963     TIP3     OH2      OT      -0.834000       15.9994           0
     32262 TIP3     4963     TIP3     H1       HT       0.417000       1.00800           0
     32263 TIP3     4963     TIP3     H2       HT       0.417000       1.00800           0
     32264 TIP3     4964     TIP3     OH2      OT      -0.834000       15.9994           0
     32265 TIP3     4964     TIP3     H1       HT       0.417000       1.00800           0
     32266 TIP3     4964     TIP3     H2       HT       0.417000       1.00800           0
     32267 TIP3     4965     TIP3     OH2      OT      -0.834000       15.9994           0
     32268 TIP3     4965     TIP3     H1       HT       0.417000       1.00800           0
     32269 TIP3     4965     TIP3     H2       HT       0.417000       1.00800           0
     32270 TIP3     4966     TIP3     OH2      OT      -0.834000       15.9994           0
     32271 TIP3     4966     TIP3     H1       HT       0.417000       1.00800           0
     32272 TIP3     4966     TIP3     H2       HT       0.417000       1.00800           0
     32273 TIP3     4967     TIP3     OH2      OT      -0.834000       15.9994           0
     32274 TIP3     4967     TIP3     H1       HT       0.417000       1.00800           0
     32275 TIP3     4967     TIP3     H2       HT       0.417000       1.00800           0
     32276 TIP3     4968     TIP3     OH2      OT      -0.834000       15.9994           0
     32277 TIP3     4968     TIP3     H1       HT       0.417000       1.00800           0
     32278 TIP3     4968     TIP3     H2       HT       0.417000       1.00800           0
     32279 TIP3     4969     TIP3     OH2      OT      -0.834000       15.9994           0
     32280 TIP3     4969     TIP3     H1       HT       0.417000       1.00800           0
     32281 TIP3     4969     TIP3     H2       HT       0.417000       1.00800           0
     32282 TIP3     4970     TIP3     OH2      OT      -0.834000       15.9994           0
     32283 TIP3     4970     TIP3     H1       HT       0.417000       1.00800           0
     32284 TIP3     4970     TIP3     H2       HT       0.417000       1.00800           0
     32285 TIP3     4971     TIP3     OH2      OT      -0.834000       15.9994           0
     32286 TIP3     4971     TIP3     H1       HT       0.417000       1.00800           0
     32287 TIP3     4971     TIP3     H2       HT       0.417000       1.00800           0
     32288 TIP3     4972     TIP3     OH2      OT      -0.834000       15.9994           0
     32289 TIP3     4972     TIP3     H1       HT       0.417000       1.00800           0
     32290 TIP3     4972     TIP3     H2       HT       0.417000       1.00800           0
     32291 TIP3     4973     TIP3     OH2      OT      -0.834000       15.9994           0
     32292 TIP3     4973     TIP3     H1       HT       0.417000       1.00800           0
     32293 TIP3     4973     TIP3     H2       HT       0.417000       1.00800           0
     32294 TIP3     4974     TIP3     OH2      OT      -0.834000       15.9994           0
     32295 TIP3     4974     TIP3     H1       HT       0.417000       1.00800           0
     32296 TIP3     4974     TIP3     H2       HT       0.417000       1.00800           0
     32297 TIP3     4975     TIP3     OH2      OT      -0.834000       15.9994           0
     32298 TIP3     4975     TIP3     H1       HT       0.417000       1.00800           0
     32299 TIP3     4975     TIP3     H2       HT       0.417000       1.00800           0
     32300 TIP3     4976     TIP3     OH2      OT      -0.834000       15.9994           0
     32301 TIP3     4976     TIP3     H1       HT       0.417000       1.00800           0
     32302 TIP3     4976     TIP3     H2       HT       0.417000       1.00800           0
     32303 TIP3     4977     TIP3     OH2      OT      -0.834000       15.9994           0
     32304 TIP3     4977     TIP3     H1       HT       0.417000       1.00800           0
     32305 TIP3     4977     TIP3     H2       HT       0.417000       1.00800           0
     32306 TIP3     4978     TIP3     OH2      OT      -0.834000       15.9994           0
     32307 TIP3     4978     TIP3     H1       HT       0.417000       1.00800           0
     32308 TIP3     4978     TIP3     H2       HT       0.417000       1.00800           0
     32309 TIP3     4979     TIP3     OH2      OT      -0.834000       15.9994           0
     32310 TIP3     4979     TIP3     H1       HT       0.417000       1.00800           0
     32311 TIP3     4979     TIP3     H2       HT       0.417000       1.00800           0
     32312 TIP3     4980     TIP3     OH2      OT      -0.834000       15.9994           0
     32313 TIP3     4980     TIP3     H1       HT       0.417000       1.00800           0
     32314 TIP3     4980     TIP3     H2       HT       0.417000       1.00800           0
     32315 TIP3     4981     TIP3     OH2      OT      -0.834000       15.9994           0
     32316 TIP3     4981     TIP3     H1       HT       0.417000       1.00800           0
     32317 TIP3     4981     TIP3     H2       HT       0.417000       1.00800           0
     32318 TIP3     4982     TIP3     OH2      OT      -0.834000       15.9994           0
     32319 TIP3     4982     TIP3     H1       HT       0.417000       1.00800           0
     32320 TIP3     4982     TIP3     H2       HT       0.417000       1.00800           0
     32321 TIP3     4983     TIP3     OH2      OT      -0.834000       15.9994           0
     32322 TIP3     4983     TIP3     H1       HT       0.417000       1.00800           0
     32323 TIP3     4983     TIP3     H2       HT       0.417000       1.00800           0
     32324 TIP3     4984     TIP3     OH2      OT      -0.834000       15.9994           0
     32325 TIP3     4984     TIP3     H1       HT       0.417000       1.00800           0
     32326 TIP3     4984     TIP3     H2       HT       0.417000       1.00800           0
     32327 TIP3     4985     TIP3     OH2      OT      -0.834000       15.9994           0
     32328 TIP3     4985     TIP3     H1       HT       0.417000       1.00800           0
     32329 TIP3     4985     TIP3     H2       HT       0.417000       1.00800           0
     32330 TIP3     4986     TIP3     OH2      OT      -0.834000       15.9994           0
     32331 TIP3     4986     TIP3     H1       HT       0.417000       1.00800           0
     32332 TIP3     4986     TIP3     H2       HT       0.417000       1.00800           0
     32333 TIP3     4987     TIP3     OH2      OT      -0.834000       15.9994           0
     32334 TIP3     4987     TIP3     H1       HT       0.417000       1.00800           0
     32335 TIP3     4987     TIP3     H2       HT       0.417000       1.00800           0
     32336 TIP3     4988     TIP3     OH2      OT      -0.834000       15.9994           0
     32337 TIP3     4988     TIP3     H1       HT       0.417000       1.00800           0
     32338 TIP3     4988     TIP3     H2       HT       0.417000       1.00800           0
     32339 TIP3     4989     TIP3     OH2      OT      -0.834000       15.9994           0
     32340 TIP3     4989     TIP3     H1       HT       0.417000       1.00800           0
     32341 TIP3     4989     TIP3     H2       HT       0.417000       1.00800           0
     32342 TIP3     4990     TIP3     OH2      OT      -0.834000       15.9994           0
     32343 TIP3     4990     TIP3     H1       HT       0.417000       1.00800           0
     32344 TIP3     4990     TIP3     H2       HT       0.417000       1.00800           0
     32345 TIP3     4991     TIP3     OH2      OT      -0.834000       15.9994           0
     32346 TIP3     4991     TIP3     H1       HT       0.417000       1.00800           0
     32347 TIP3     4991     TIP3     H2       HT       0.417000       1.00800           0
     32348 TIP3     4992     TIP3     OH2      OT      -0.834000       15.9994           0
     32349 TIP3     4992     TIP3     H1       HT       0.417000       1.00800           0
     32350 TIP3     4992     TIP3     H2       HT       0.417000       1.00800           0
     32351 TIP3     4993     TIP3     OH2      OT      -0.834000       15.9994           0
     32352 TIP3     4993     TIP3     H1       HT       0.417000       1.00800           0
     32353 TIP3     4993     TIP3     H2       HT       0.417000       1.00800           0
     32354 TIP3     4994     TIP3     OH2      OT      -0.834000       15.9994           0
     32355 TIP3     4994     TIP3     H1       HT       0.417000       1.00800           0
     32356 TIP3     4994     TIP3     H2       HT       0.417000       1.00800           0
     32357 TIP3     4995     TIP3     OH2      OT      -0.834000       15.9994           0
     32358 TIP3     4995     TIP3     H1       HT       0.417000       1.00800           0
     32359 TIP3     4995     TIP3     H2       HT       0.417000       1.00800           0
     32360 TIP3     4996     TIP3     OH2      OT      -0.834000       15.9994           0
     32361 TIP3     4996     TIP3     H1       HT       0.417000       1.00800           0
     32362 TIP3     4996     TIP3     H2       HT       0.417000       1.00800           0
     32363 TIP3     4997     TIP3     OH2      OT      -0.834000       15.9994           0
     32364 TIP3     4997     TIP3     H1       HT       0.417000       1.00800           0
     32365 TIP3     4997     TIP3     H2       HT       0.417000       1.00800           0
     32366 TIP3     4998     TIP3     OH2      OT      -0.834000       15.9994           0
     32367 TIP3     4998     TIP3     H1       HT       0.417000       1.00800           0
     32368 TIP3     4998     TIP3     H2       HT       0.417000       1.00800           0
     32369 TIP3     4999     TIP3     OH2      OT      -0.834000       15.9994           0
     32370 TIP3     4999     TIP3     H1       HT       0.417000       1.00800           0
     32371 TIP3     4999     TIP3     H2       HT       0.417000       1.00800           0
     32372 TIP3     5000     TIP3     OH2      OT      -0.834000       15.9994           0
     32373 TIP3     5000     TIP3     H1       HT       0.417000       1.00800           0
     32374 TIP3     5000     TIP3     H2       HT       0.417000       1.00800           0
     32375 TIP3     5001     TIP3     OH2      OT      -0.834000       15.9994           0
     32376 TIP3     5001     TIP3     H1       HT       0.417000       1.00800           0
     32377 TIP3     5001     TIP3     H2       HT       0.417000       1.00800           0
     32378 TIP3     5002     TIP3     OH2      OT      -0.834000       15.9994           0
     32379 TIP3     5002     TIP3     H1       HT       0.417000       1.00800           0
     32380 TIP3     5002     TIP3     H2       HT       0.417000       1.00800           0
     32381 TIP3     5003     TIP3     OH2      OT      -0.834000       15.9994           0
     32382 TIP3     5003     TIP3     H1       HT       0.417000       1.00800           0
     32383 TIP3     5003     TIP3     H2       HT       0.417000       1.00800           0
     32384 TIP3     5004     TIP3     OH2      OT      -0.834000       15.9994           0
     32385 TIP3     5004     TIP3     H1       HT       0.417000       1.00800           0
     32386 TIP3     5004     TIP3     H2       HT       0.417000       1.00800           0
     32387 TIP3     5005     TIP3     OH2      OT      -0.834000       15.9994           0
     32388 TIP3     5005     TIP3     H1       HT       0.417000       1.00800           0
     32389 TIP3     5005     TIP3     H2       HT       0.417000       1.00800           0
     32390 TIP3     5006     TIP3     OH2      OT      -0.834000       15.9994           0
     32391 TIP3     5006     TIP3     H1       HT       0.417000       1.00800           0
     32392 TIP3     5006     TIP3     H2       HT       0.417000       1.00800           0
     32393 TIP3     5007     TIP3     OH2      OT      -0.834000       15.9994           0
     32394 TIP3     5007     TIP3     H1       HT       0.417000       1.00800           0
     32395 TIP3     5007     TIP3     H2       HT       0.417000       1.00800           0
     32396 TIP3     5008     TIP3     OH2      OT      -0.834000       15.9994           0
     32397 TIP3     5008     TIP3     H1       HT       0.417000       1.00800           0
     32398 TIP3     5008     TIP3     H2       HT       0.417000       1.00800           0
     32399 TIP3     5009     TIP3     OH2      OT      -0.834000       15.9994           0
     32400 TIP3     5009     TIP3     H1       HT       0.417000       1.00800           0
     32401 TIP3     5009     TIP3     H2       HT       0.417000       1.00800           0
     32402 TIP3     5010     TIP3     OH2      OT      -0.834000       15.9994           0
     32403 TIP3     5010     TIP3     H1       HT       0.417000       1.00800           0
     32404 TIP3     5010     TIP3     H2       HT       0.417000       1.00800           0
     32405 TIP3     5011     TIP3     OH2      OT      -0.834000       15.9994           0
     32406 TIP3     5011     TIP3     H1       HT       0.417000       1.00800           0
     32407 TIP3     5011     TIP3     H2       HT       0.417000       1.00800           0
     32408 TIP3     5012     TIP3     OH2      OT      -0.834000       15.9994           0
     32409 TIP3     5012     TIP3     H1       HT       0.417000       1.00800           0
     32410 TIP3     5012     TIP3     H2       HT       0.417000       1.00800           0
     32411 TIP3     5013     TIP3     OH2      OT      -0.834000       15.9994           0
     32412 TIP3     5013     TIP3     H1       HT       0.417000       1.00800           0
     32413 TIP3     5013     TIP3     H2       HT       0.417000       1.00800           0
     32414 TIP3     5014     TIP3     OH2      OT      -0.834000       15.9994           0
     32415 TIP3     5014     TIP3     H1       HT       0.417000       1.00800           0
     32416 TIP3     5014     TIP3     H2       HT       0.417000       1.00800           0
     32417 TIP3     5015     TIP3     OH2      OT      -0.834000       15.9994           0
     32418 TIP3     5015     TIP3     H1       HT       0.417000       1.00800           0
     32419 TIP3     5015     TIP3     H2       HT       0.417000       1.00800           0
     32420 TIP3     5016     TIP3     OH2      OT      -0.834000       15.9994           0
     32421 TIP3     5016     TIP3     H1       HT       0.417000       1.00800           0
     32422 TIP3     5016     TIP3     H2       HT       0.417000       1.00800           0
     32423 TIP3     5017     TIP3     OH2      OT      -0.834000       15.9994           0
     32424 TIP3     5017     TIP3     H1       HT       0.417000       1.00800           0
     32425 TIP3     5017     TIP3     H2       HT       0.417000       1.00800           0
     32426 TIP3     5018     TIP3     OH2      OT      -0.834000       15.9994           0
     32427 TIP3     5018     TIP3     H1       HT       0.417000       1.00800           0
     32428 TIP3     5018     TIP3     H2       HT       0.417000       1.00800           0
     32429 TIP3     5019     TIP3     OH2      OT      -0.834000       15.9994           0
     32430 TIP3     5019     TIP3     H1       HT       0.417000       1.00800           0
     32431 TIP3     5019     TIP3     H2       HT       0.417000       1.00800           0
     32432 TIP3     5020     TIP3     OH2      OT      -0.834000       15.9994           0
     32433 TIP3     5020     TIP3     H1       HT       0.417000       1.00800           0
     32434 TIP3     5020     TIP3     H2       HT       0.417000       1.00800           0
     32435 TIP3     5021     TIP3     OH2      OT      -0.834000       15.9994           0
     32436 TIP3     5021     TIP3     H1       HT       0.417000       1.00800           0
     32437 TIP3     5021     TIP3     H2       HT       0.417000       1.00800           0
     32438 TIP3     5022     TIP3     OH2      OT      -0.834000       15.9994           0
     32439 TIP3     5022     TIP3     H1       HT       0.417000       1.00800           0
     32440 TIP3     5022     TIP3     H2       HT       0.417000       1.00800           0
     32441 TIP3     5023     TIP3     OH2      OT      -0.834000       15.9994           0
     32442 TIP3     5023     TIP3     H1       HT       0.417000       1.00800           0
     32443 TIP3     5023     TIP3     H2       HT       0.417000       1.00800           0
     32444 TIP3     5024     TIP3     OH2      OT      -0.834000       15.9994           0
     32445 TIP3     5024     TIP3     H1       HT       0.417000       1.00800           0
     32446 TIP3     5024     TIP3     H2       HT       0.417000       1.00800           0
     32447 TIP3     5025     TIP3     OH2      OT      -0.834000       15.9994           0
     32448 TIP3     5025     TIP3     H1       HT       0.417000       1.00800           0
     32449 TIP3     5025     TIP3     H2       HT       0.417000       1.00800           0
     32450 TIP3     5026     TIP3     OH2      OT      -0.834000       15.9994           0
     32451 TIP3     5026     TIP3     H1       HT       0.417000       1.00800           0
     32452 TIP3     5026     TIP3     H2       HT       0.417000       1.00800           0
     32453 TIP3     5027     TIP3     OH2      OT      -0.834000       15.9994           0
     32454 TIP3     5027     TIP3     H1       HT       0.417000       1.00800           0
     32455 TIP3     5027     TIP3     H2       HT       0.417000       1.00800           0
     32456 TIP3     5028     TIP3     OH2      OT      -0.834000       15.9994           0
     32457 TIP3     5028     TIP3     H1       HT       0.417000       1.00800           0
     32458 TIP3     5028     TIP3     H2       HT       0.417000       1.00800           0
     32459 TIP3     5029     TIP3     OH2      OT      -0.834000       15.9994           0
     32460 TIP3     5029     TIP3     H1       HT       0.417000       1.00800           0
     32461 TIP3     5029     TIP3     H2       HT       0.417000       1.00800           0
     32462 TIP3     5030     TIP3     OH2      OT      -0.834000       15.9994           0
     32463 TIP3     5030     TIP3     H1       HT       0.417000       1.00800           0
     32464 TIP3     5030     TIP3     H2       HT       0.417000       1.00800           0
     32465 TIP3     5031     TIP3     OH2      OT      -0.834000       15.9994           0
     32466 TIP3     5031     TIP3     H1       HT       0.417000       1.00800           0
     32467 TIP3     5031     TIP3     H2       HT       0.417000       1.00800           0
     32468 TIP3     5032     TIP3     OH2      OT      -0.834000       15.9994           0
     32469 TIP3     5032     TIP3     H1       HT       0.417000       1.00800           0
     32470 TIP3     5032     TIP3     H2       HT       0.417000       1.00800           0
     32471 TIP3     5033     TIP3     OH2      OT      -0.834000       15.9994           0
     32472 TIP3     5033     TIP3     H1       HT       0.417000       1.00800           0
     32473 TIP3     5033     TIP3     H2       HT       0.417000       1.00800           0
     32474 TIP3     5034     TIP3     OH2      OT      -0.834000       15.9994           0
     32475 TIP3     5034     TIP3     H1       HT       0.417000       1.00800           0
     32476 TIP3     5034     TIP3     H2       HT       0.417000       1.00800           0
     32477 TIP3     5035     TIP3     OH2      OT      -0.834000       15.9994           0
     32478 TIP3     5035     TIP3     H1       HT       0.417000       1.00800           0
     32479 TIP3     5035     TIP3     H2       HT       0.417000       1.00800           0
     32480 TIP3     5036     TIP3     OH2      OT      -0.834000       15.9994           0
     32481 TIP3     5036     TIP3     H1       HT       0.417000       1.00800           0
     32482 TIP3     5036     TIP3     H2       HT       0.417000       1.00800           0
     32483 TIP3     5037     TIP3     OH2      OT      -0.834000       15.9994           0
     32484 TIP3     5037     TIP3     H1       HT       0.417000       1.00800           0
     32485 TIP3     5037     TIP3     H2       HT       0.417000       1.00800           0
     32486 TIP3     5038     TIP3     OH2      OT      -0.834000       15.9994           0
     32487 TIP3     5038     TIP3     H1       HT       0.417000       1.00800           0
     32488 TIP3     5038     TIP3     H2       HT       0.417000       1.00800           0
     32489 TIP3     5039     TIP3     OH2      OT      -0.834000       15.9994           0
     32490 TIP3     5039     TIP3     H1       HT       0.417000       1.00800           0
     32491 TIP3     5039     TIP3     H2       HT       0.417000       1.00800           0
     32492 TIP3     5040     TIP3     OH2      OT      -0.834000       15.9994           0
     32493 TIP3     5040     TIP3     H1       HT       0.417000       1.00800           0
     32494 TIP3     5040     TIP3     H2       HT       0.417000       1.00800           0
     32495 TIP3     5041     TIP3     OH2      OT      -0.834000       15.9994           0
     32496 TIP3     5041     TIP3     H1       HT       0.417000       1.00800           0
     32497 TIP3     5041     TIP3     H2       HT       0.417000       1.00800           0
     32498 TIP3     5042     TIP3     OH2      OT      -0.834000       15.9994           0
     32499 TIP3     5042     TIP3     H1       HT       0.417000       1.00800           0
     32500 TIP3     5042     TIP3     H2       HT       0.417000       1.00800           0
     32501 TIP3     5043     TIP3     OH2      OT      -0.834000       15.9994           0
     32502 TIP3     5043     TIP3     H1       HT       0.417000       1.00800           0
     32503 TIP3     5043     TIP3     H2       HT       0.417000       1.00800           0
     32504 TIP3     5044     TIP3     OH2      OT      -0.834000       15.9994           0
     32505 TIP3     5044     TIP3     H1       HT       0.417000       1.00800           0
     32506 TIP3     5044     TIP3     H2       HT       0.417000       1.00800           0
     32507 TIP3     5045     TIP3     OH2      OT      -0.834000       15.9994           0
     32508 TIP3     5045     TIP3     H1       HT       0.417000       1.00800           0
     32509 TIP3     5045     TIP3     H2       HT       0.417000       1.00800           0
     32510 TIP3     5046     TIP3     OH2      OT      -0.834000       15.9994           0
     32511 TIP3     5046     TIP3     H1       HT       0.417000       1.00800           0
     32512 TIP3     5046     TIP3     H2       HT       0.417000       1.00800           0
     32513 TIP3     5047     TIP3     OH2      OT      -0.834000       15.9994           0
     32514 TIP3     5047     TIP3     H1       HT       0.417000       1.00800           0
     32515 TIP3     5047     TIP3     H2       HT       0.417000       1.00800           0
     32516 TIP3     5048     TIP3     OH2      OT      -0.834000       15.9994           0
     32517 TIP3     5048     TIP3     H1       HT       0.417000       1.00800           0
     32518 TIP3     5048     TIP3     H2       HT       0.417000       1.00800           0
     32519 TIP3     5049     TIP3     OH2      OT      -0.834000       15.9994           0
     32520 TIP3     5049     TIP3     H1       HT       0.417000       1.00800           0
     32521 TIP3     5049     TIP3     H2       HT       0.417000       1.00800           0
     32522 TIP3     5050     TIP3     OH2      OT      -0.834000       15.9994           0
     32523 TIP3     5050     TIP3     H1       HT       0.417000       1.00800           0
     32524 TIP3     5050     TIP3     H2       HT       0.417000       1.00800           0
     32525 TIP3     5051     TIP3     OH2      OT      -0.834000       15.9994           0
     32526 TIP3     5051     TIP3     H1       HT       0.417000       1.00800           0
     32527 TIP3     5051     TIP3     H2       HT       0.417000       1.00800           0
     32528 TIP3     5052     TIP3     OH2      OT      -0.834000       15.9994           0
     32529 TIP3     5052     TIP3     H1       HT       0.417000       1.00800           0
     32530 TIP3     5052     TIP3     H2       HT       0.417000       1.00800           0
     32531 TIP3     5053     TIP3     OH2      OT      -0.834000       15.9994           0
     32532 TIP3     5053     TIP3     H1       HT       0.417000       1.00800           0
     32533 TIP3     5053     TIP3     H2       HT       0.417000       1.00800           0
     32534 TIP3     5054     TIP3     OH2      OT      -0.834000       15.9994           0
     32535 TIP3     5054     TIP3     H1       HT       0.417000       1.00800           0
     32536 TIP3     5054     TIP3     H2       HT       0.417000       1.00800           0
     32537 TIP3     5055     TIP3     OH2      OT      -0.834000       15.9994           0
     32538 TIP3     5055     TIP3     H1       HT       0.417000       1.00800           0
     32539 TIP3     5055     TIP3     H2       HT       0.417000       1.00800           0
     32540 TIP3     5056     TIP3     OH2      OT      -0.834000       15.9994           0
     32541 TIP3     5056     TIP3     H1       HT       0.417000       1.00800           0
     32542 TIP3     5056     TIP3     H2       HT       0.417000       1.00800           0
     32543 TIP3     5057     TIP3     OH2      OT      -0.834000       15.9994           0
     32544 TIP3     5057     TIP3     H1       HT       0.417000       1.00800           0
     32545 TIP3     5057     TIP3     H2       HT       0.417000       1.00800           0
     32546 TIP3     5058     TIP3     OH2      OT      -0.834000       15.9994           0
     32547 TIP3     5058     TIP3     H1       HT       0.417000       1.00800           0
     32548 TIP3     5058     TIP3     H2       HT       0.417000       1.00800           0
     32549 TIP3     5059     TIP3     OH2      OT      -0.834000       15.9994           0
     32550 TIP3     5059     TIP3     H1       HT       0.417000       1.00800           0
     32551 TIP3     5059     TIP3     H2       HT       0.417000       1.00800           0
     32552 TIP3     5060     TIP3     OH2      OT      -0.834000       15.9994           0
     32553 TIP3     5060     TIP3     H1       HT       0.417000       1.00800           0
     32554 TIP3     5060     TIP3     H2       HT       0.417000       1.00800           0
     32555 TIP3     5061     TIP3     OH2      OT      -0.834000       15.9994           0
     32556 TIP3     5061     TIP3     H1       HT       0.417000       1.00800           0
     32557 TIP3     5061     TIP3     H2       HT       0.417000       1.00800           0
     32558 TIP3     5062     TIP3     OH2      OT      -0.834000       15.9994           0
     32559 TIP3     5062     TIP3     H1       HT       0.417000       1.00800           0
     32560 TIP3     5062     TIP3     H2       HT       0.417000       1.00800           0
     32561 TIP3     5063     TIP3     OH2      OT      -0.834000       15.9994           0
     32562 TIP3     5063     TIP3     H1       HT       0.417000       1.00800           0
     32563 TIP3     5063     TIP3     H2       HT       0.417000       1.00800           0
     32564 TIP3     5064     TIP3     OH2      OT      -0.834000       15.9994           0
     32565 TIP3     5064     TIP3     H1       HT       0.417000       1.00800           0
     32566 TIP3     5064     TIP3     H2       HT       0.417000       1.00800           0
     32567 TIP3     5065     TIP3     OH2      OT      -0.834000       15.9994           0
     32568 TIP3     5065     TIP3     H1       HT       0.417000       1.00800           0
     32569 TIP3     5065     TIP3     H2       HT       0.417000       1.00800           0
     32570 TIP3     5066     TIP3     OH2      OT      -0.834000       15.9994           0
     32571 TIP3     5066     TIP3     H1       HT       0.417000       1.00800           0
     32572 TIP3     5066     TIP3     H2       HT       0.417000       1.00800           0
     32573 TIP3     5067     TIP3     OH2      OT      -0.834000       15.9994           0
     32574 TIP3     5067     TIP3     H1       HT       0.417000       1.00800           0
     32575 TIP3     5067     TIP3     H2       HT       0.417000       1.00800           0
     32576 TIP3     5068     TIP3     OH2      OT      -0.834000       15.9994           0
     32577 TIP3     5068     TIP3     H1       HT       0.417000       1.00800           0
     32578 TIP3     5068     TIP3     H2       HT       0.417000       1.00800           0
     32579 TIP3     5069     TIP3     OH2      OT      -0.834000       15.9994           0
     32580 TIP3     5069     TIP3     H1       HT       0.417000       1.00800           0
     32581 TIP3     5069     TIP3     H2       HT       0.417000       1.00800           0
     32582 TIP3     5070     TIP3     OH2      OT      -0.834000       15.9994           0
     32583 TIP3     5070     TIP3     H1       HT       0.417000       1.00800           0
     32584 TIP3     5070     TIP3     H2       HT       0.417000       1.00800           0
     32585 TIP3     5071     TIP3     OH2      OT      -0.834000       15.9994           0
     32586 TIP3     5071     TIP3     H1       HT       0.417000       1.00800           0
     32587 TIP3     5071     TIP3     H2       HT       0.417000       1.00800           0
     32588 TIP3     5072     TIP3     OH2      OT      -0.834000       15.9994           0
     32589 TIP3     5072     TIP3     H1       HT       0.417000       1.00800           0
     32590 TIP3     5072     TIP3     H2       HT       0.417000       1.00800           0
     32591 TIP3     5073     TIP3     OH2      OT      -0.834000       15.9994           0
     32592 TIP3     5073     TIP3     H1       HT       0.417000       1.00800           0
     32593 TIP3     5073     TIP3     H2       HT       0.417000       1.00800           0
     32594 TIP3     5074     TIP3     OH2      OT      -0.834000       15.9994           0
     32595 TIP3     5074     TIP3     H1       HT       0.417000       1.00800           0
     32596 TIP3     5074     TIP3     H2       HT       0.417000       1.00800           0
     32597 TIP3     5075     TIP3     OH2      OT      -0.834000       15.9994           0
     32598 TIP3     5075     TIP3     H1       HT       0.417000       1.00800           0
     32599 TIP3     5075     TIP3     H2       HT       0.417000       1.00800           0
     32600 TIP3     5076     TIP3     OH2      OT      -0.834000       15.9994           0
     32601 TIP3     5076     TIP3     H1       HT       0.417000       1.00800           0
     32602 TIP3     5076     TIP3     H2       HT       0.417000       1.00800           0
     32603 TIP3     5077     TIP3     OH2      OT      -0.834000       15.9994           0
     32604 TIP3     5077     TIP3     H1       HT       0.417000       1.00800           0
     32605 TIP3     5077     TIP3     H2       HT       0.417000       1.00800           0
     32606 TIP3     5078     TIP3     OH2      OT      -0.834000       15.9994           0
     32607 TIP3     5078     TIP3     H1       HT       0.417000       1.00800           0
     32608 TIP3     5078     TIP3     H2       HT       0.417000       1.00800           0
     32609 TIP3     5079     TIP3     OH2      OT      -0.834000       15.9994           0
     32610 TIP3     5079     TIP3     H1       HT       0.417000       1.00800           0
     32611 TIP3     5079     TIP3     H2       HT       0.417000       1.00800           0
     32612 TIP3     5080     TIP3     OH2      OT      -0.834000       15.9994           0
     32613 TIP3     5080     TIP3     H1       HT       0.417000       1.00800           0
     32614 TIP3     5080     TIP3     H2       HT       0.417000       1.00800           0
     32615 TIP3     5081     TIP3     OH2      OT      -0.834000       15.9994           0
     32616 TIP3     5081     TIP3     H1       HT       0.417000       1.00800           0
     32617 TIP3     5081     TIP3     H2       HT       0.417000       1.00800           0
     32618 TIP3     5082     TIP3     OH2      OT      -0.834000       15.9994           0
     32619 TIP3     5082     TIP3     H1       HT       0.417000       1.00800           0
     32620 TIP3     5082     TIP3     H2       HT       0.417000       1.00800           0
     32621 TIP3     5083     TIP3     OH2      OT      -0.834000       15.9994           0
     32622 TIP3     5083     TIP3     H1       HT       0.417000       1.00800           0
     32623 TIP3     5083     TIP3     H2       HT       0.417000       1.00800           0
     32624 TIP3     5084     TIP3     OH2      OT      -0.834000       15.9994           0
     32625 TIP3     5084     TIP3     H1       HT       0.417000       1.00800           0
     32626 TIP3     5084     TIP3     H2       HT       0.417000       1.00800           0
     32627 TIP3     5085     TIP3     OH2      OT      -0.834000       15.9994           0
     32628 TIP3     5085     TIP3     H1       HT       0.417000       1.00800           0
     32629 TIP3     5085     TIP3     H2       HT       0.417000       1.00800           0
     32630 TIP3     5086     TIP3     OH2      OT      -0.834000       15.9994           0
     32631 TIP3     5086     TIP3     H1       HT       0.417000       1.00800           0
     32632 TIP3     5086     TIP3     H2       HT       0.417000       1.00800           0
     32633 TIP3     5087     TIP3     OH2      OT      -0.834000       15.9994           0
     32634 TIP3     5087     TIP3     H1       HT       0.417000       1.00800           0
     32635 TIP3     5087     TIP3     H2       HT       0.417000       1.00800           0
     32636 TIP3     5088     TIP3     OH2      OT      -0.834000       15.9994           0
     32637 TIP3     5088     TIP3     H1       HT       0.417000       1.00800           0
     32638 TIP3     5088     TIP3     H2       HT       0.417000       1.00800           0
     32639 TIP3     5089     TIP3     OH2      OT      -0.834000       15.9994           0
     32640 TIP3     5089     TIP3     H1       HT       0.417000       1.00800           0
     32641 TIP3     5089     TIP3     H2       HT       0.417000       1.00800           0
     32642 TIP3     5090     TIP3     OH2      OT      -0.834000       15.9994           0
     32643 TIP3     5090     TIP3     H1       HT       0.417000       1.00800           0
     32644 TIP3     5090     TIP3     H2       HT       0.417000       1.00800           0
     32645 TIP3     5091     TIP3     OH2      OT      -0.834000       15.9994           0
     32646 TIP3     5091     TIP3     H1       HT       0.417000       1.00800           0
     32647 TIP3     5091     TIP3     H2       HT       0.417000       1.00800           0
     32648 TIP3     5092     TIP3     OH2      OT      -0.834000       15.9994           0
     32649 TIP3     5092     TIP3     H1       HT       0.417000       1.00800           0
     32650 TIP3     5092     TIP3     H2       HT       0.417000       1.00800           0
     32651 TIP3     5093     TIP3     OH2      OT      -0.834000       15.9994           0
     32652 TIP3     5093     TIP3     H1       HT       0.417000       1.00800           0
     32653 TIP3     5093     TIP3     H2       HT       0.417000       1.00800           0
     32654 TIP3     5094     TIP3     OH2      OT      -0.834000       15.9994           0
     32655 TIP3     5094     TIP3     H1       HT       0.417000       1.00800           0
     32656 TIP3     5094     TIP3     H2       HT       0.417000       1.00800           0
     32657 TIP3     5095     TIP3     OH2      OT      -0.834000       15.9994           0
     32658 TIP3     5095     TIP3     H1       HT       0.417000       1.00800           0
     32659 TIP3     5095     TIP3     H2       HT       0.417000       1.00800           0
     32660 TIP3     5096     TIP3     OH2      OT      -0.834000       15.9994           0
     32661 TIP3     5096     TIP3     H1       HT       0.417000       1.00800           0
     32662 TIP3     5096     TIP3     H2       HT       0.417000       1.00800           0
     32663 TIP3     5097     TIP3     OH2      OT      -0.834000       15.9994           0
     32664 TIP3     5097     TIP3     H1       HT       0.417000       1.00800           0
     32665 TIP3     5097     TIP3     H2       HT       0.417000       1.00800           0
     32666 TIP3     5098     TIP3     OH2      OT      -0.834000       15.9994           0
     32667 TIP3     5098     TIP3     H1       HT       0.417000       1.00800           0
     32668 TIP3     5098     TIP3     H2       HT       0.417000       1.00800           0
     32669 TIP3     5099     TIP3     OH2      OT      -0.834000       15.9994           0
     32670 TIP3     5099     TIP3     H1       HT       0.417000       1.00800           0
     32671 TIP3     5099     TIP3     H2       HT       0.417000       1.00800           0
     32672 TIP3     5100     TIP3     OH2      OT      -0.834000       15.9994           0
     32673 TIP3     5100     TIP3     H1       HT       0.417000       1.00800           0
     32674 TIP3     5100     TIP3     H2       HT       0.417000       1.00800           0
     32675 TIP3     5101     TIP3     OH2      OT      -0.834000       15.9994           0
     32676 TIP3     5101     TIP3     H1       HT       0.417000       1.00800           0
     32677 TIP3     5101     TIP3     H2       HT       0.417000       1.00800           0
     32678 TIP3     5102     TIP3     OH2      OT      -0.834000       15.9994           0
     32679 TIP3     5102     TIP3     H1       HT       0.417000       1.00800           0
     32680 TIP3     5102     TIP3     H2       HT       0.417000       1.00800           0
     32681 TIP3     5103     TIP3     OH2      OT      -0.834000       15.9994           0
     32682 TIP3     5103     TIP3     H1       HT       0.417000       1.00800           0
     32683 TIP3     5103     TIP3     H2       HT       0.417000       1.00800           0
     32684 TIP3     5104     TIP3     OH2      OT      -0.834000       15.9994           0
     32685 TIP3     5104     TIP3     H1       HT       0.417000       1.00800           0
     32686 TIP3     5104     TIP3     H2       HT       0.417000       1.00800           0
     32687 TIP3     5105     TIP3     OH2      OT      -0.834000       15.9994           0
     32688 TIP3     5105     TIP3     H1       HT       0.417000       1.00800           0
     32689 TIP3     5105     TIP3     H2       HT       0.417000       1.00800           0
     32690 TIP3     5106     TIP3     OH2      OT      -0.834000       15.9994           0
     32691 TIP3     5106     TIP3     H1       HT       0.417000       1.00800           0
     32692 TIP3     5106     TIP3     H2       HT       0.417000       1.00800           0
     32693 TIP3     5107     TIP3     OH2      OT      -0.834000       15.9994           0
     32694 TIP3     5107     TIP3     H1       HT       0.417000       1.00800           0
     32695 TIP3     5107     TIP3     H2       HT       0.417000       1.00800           0
     32696 TIP3     5108     TIP3     OH2      OT      -0.834000       15.9994           0
     32697 TIP3     5108     TIP3     H1       HT       0.417000       1.00800           0
     32698 TIP3     5108     TIP3     H2       HT       0.417000       1.00800           0
     32699 TIP3     5109     TIP3     OH2      OT      -0.834000       15.9994           0
     32700 TIP3     5109     TIP3     H1       HT       0.417000       1.00800           0
     32701 TIP3     5109     TIP3     H2       HT       0.417000       1.00800           0
     32702 TIP3     5110     TIP3     OH2      OT      -0.834000       15.9994           0
     32703 TIP3     5110     TIP3     H1       HT       0.417000       1.00800           0
     32704 TIP3     5110     TIP3     H2       HT       0.417000       1.00800           0
     32705 TIP3     5111     TIP3     OH2      OT      -0.834000       15.9994           0
     32706 TIP3     5111     TIP3     H1       HT       0.417000       1.00800           0
     32707 TIP3     5111     TIP3     H2       HT       0.417000       1.00800           0
     32708 TIP3     5112     TIP3     OH2      OT      -0.834000       15.9994           0
     32709 TIP3     5112     TIP3     H1       HT       0.417000       1.00800           0
     32710 TIP3     5112     TIP3     H2       HT       0.417000       1.00800           0
     32711 TIP3     5113     TIP3     OH2      OT      -0.834000       15.9994           0
     32712 TIP3     5113     TIP3     H1       HT       0.417000       1.00800           0
     32713 TIP3     5113     TIP3     H2       HT       0.417000       1.00800           0
     32714 TIP3     5114     TIP3     OH2      OT      -0.834000       15.9994           0
     32715 TIP3     5114     TIP3     H1       HT       0.417000       1.00800           0
     32716 TIP3     5114     TIP3     H2       HT       0.417000       1.00800           0
     32717 TIP3     5115     TIP3     OH2      OT      -0.834000       15.9994           0
     32718 TIP3     5115     TIP3     H1       HT       0.417000       1.00800           0
     32719 TIP3     5115     TIP3     H2       HT       0.417000       1.00800           0
     32720 TIP3     5116     TIP3     OH2      OT      -0.834000       15.9994           0
     32721 TIP3     5116     TIP3     H1       HT       0.417000       1.00800           0
     32722 TIP3     5116     TIP3     H2       HT       0.417000       1.00800           0
     32723 TIP3     5117     TIP3     OH2      OT      -0.834000       15.9994           0
     32724 TIP3     5117     TIP3     H1       HT       0.417000       1.00800           0
     32725 TIP3     5117     TIP3     H2       HT       0.417000       1.00800           0
     32726 TIP3     5118     TIP3     OH2      OT      -0.834000       15.9994           0
     32727 TIP3     5118     TIP3     H1       HT       0.417000       1.00800           0
     32728 TIP3     5118     TIP3     H2       HT       0.417000       1.00800           0
     32729 TIP3     5119     TIP3     OH2      OT      -0.834000       15.9994           0
     32730 TIP3     5119     TIP3     H1       HT       0.417000       1.00800           0
     32731 TIP3     5119     TIP3     H2       HT       0.417000       1.00800           0
     32732 TIP3     5120     TIP3     OH2      OT      -0.834000       15.9994           0
     32733 TIP3     5120     TIP3     H1       HT       0.417000       1.00800           0
     32734 TIP3     5120     TIP3     H2       HT       0.417000       1.00800           0
     32735 TIP3     5121     TIP3     OH2      OT      -0.834000       15.9994           0
     32736 TIP3     5121     TIP3     H1       HT       0.417000       1.00800           0
     32737 TIP3     5121     TIP3     H2       HT       0.417000       1.00800           0
     32738 TIP3     5122     TIP3     OH2      OT      -0.834000       15.9994           0
     32739 TIP3     5122     TIP3     H1       HT       0.417000       1.00800           0
     32740 TIP3     5122     TIP3     H2       HT       0.417000       1.00800           0
     32741 TIP3     5123     TIP3     OH2      OT      -0.834000       15.9994           0
     32742 TIP3     5123     TIP3     H1       HT       0.417000       1.00800           0
     32743 TIP3     5123     TIP3     H2       HT       0.417000       1.00800           0
     32744 TIP3     5124     TIP3     OH2      OT      -0.834000       15.9994           0
     32745 TIP3     5124     TIP3     H1       HT       0.417000       1.00800           0
     32746 TIP3     5124     TIP3     H2       HT       0.417000       1.00800           0
     32747 TIP3     5125     TIP3     OH2      OT      -0.834000       15.9994           0
     32748 TIP3     5125     TIP3     H1       HT       0.417000       1.00800           0
     32749 TIP3     5125     TIP3     H2       HT       0.417000       1.00800           0
     32750 TIP3     5126     TIP3     OH2      OT      -0.834000       15.9994           0
     32751 TIP3     5126     TIP3     H1       HT       0.417000       1.00800           0
     32752 TIP3     5126     TIP3     H2       HT       0.417000       1.00800           0
     32753 TIP3     5127     TIP3     OH2      OT      -0.834000       15.9994           0
     32754 TIP3     5127     TIP3     H1       HT       0.417000       1.00800           0
     32755 TIP3     5127     TIP3     H2       HT       0.417000       1.00800           0
     32756 TIP3     5128     TIP3     OH2      OT      -0.834000       15.9994           0
     32757 TIP3     5128     TIP3     H1       HT       0.417000       1.00800           0
     32758 TIP3     5128     TIP3     H2       HT       0.417000       1.00800           0
     32759 TIP3     5129     TIP3     OH2      OT      -0.834000       15.9994           0
     32760 TIP3     5129     TIP3     H1       HT       0.417000       1.00800           0
     32761 TIP3     5129     TIP3     H2       HT       0.417000       1.00800           0
     32762 TIP3     5130     TIP3     OH2      OT      -0.834000       15.9994           0
     32763 TIP3     5130     TIP3     H1       HT       0.417000       1.00800           0
     32764 TIP3     5130     TIP3     H2       HT       0.417000       1.00800           0
     32765 TIP3     5131     TIP3     OH2      OT      -0.834000       15.9994           0
     32766 TIP3     5131     TIP3     H1       HT       0.417000       1.00800           0
     32767 TIP3     5131     TIP3     H2       HT       0.417000       1.00800           0
     32768 TIP3     5132     TIP3     OH2      OT      -0.834000       15.9994           0
     32769 TIP3     5132     TIP3     H1       HT       0.417000       1.00800           0
     32770 TIP3     5132     TIP3     H2       HT       0.417000       1.00800           0
     32771 TIP3     5133     TIP3     OH2      OT      -0.834000       15.9994           0
     32772 TIP3     5133     TIP3     H1       HT       0.417000       1.00800           0
     32773 TIP3     5133     TIP3     H2       HT       0.417000       1.00800           0
     32774 TIP3     5134     TIP3     OH2      OT      -0.834000       15.9994           0
     32775 TIP3     5134     TIP3     H1       HT       0.417000       1.00800           0
     32776 TIP3     5134     TIP3     H2       HT       0.417000       1.00800           0
     32777 TIP3     5135     TIP3     OH2      OT      -0.834000       15.9994           0
     32778 TIP3     5135     TIP3     H1       HT       0.417000       1.00800           0
     32779 TIP3     5135     TIP3     H2       HT       0.417000       1.00800           0
     32780 TIP3     5136     TIP3     OH2      OT      -0.834000       15.9994           0
     32781 TIP3     5136     TIP3     H1       HT       0.417000       1.00800           0
     32782 TIP3     5136     TIP3     H2       HT       0.417000       1.00800           0
     32783 TIP3     5137     TIP3     OH2      OT      -0.834000       15.9994           0
     32784 TIP3     5137     TIP3     H1       HT       0.417000       1.00800           0
     32785 TIP3     5137     TIP3     H2       HT       0.417000       1.00800           0
     32786 TIP3     5138     TIP3     OH2      OT      -0.834000       15.9994           0
     32787 TIP3     5138     TIP3     H1       HT       0.417000       1.00800           0
     32788 TIP3     5138     TIP3     H2       HT       0.417000       1.00800           0
     32789 TIP3     5139     TIP3     OH2      OT      -0.834000       15.9994           0
     32790 TIP3     5139     TIP3     H1       HT       0.417000       1.00800           0
     32791 TIP3     5139     TIP3     H2       HT       0.417000       1.00800           0
     32792 TIP3     5140     TIP3     OH2      OT      -0.834000       15.9994           0
     32793 TIP3     5140     TIP3     H1       HT       0.417000       1.00800           0
     32794 TIP3     5140     TIP3     H2       HT       0.417000       1.00800           0
     32795 TIP3     5141     TIP3     OH2      OT      -0.834000       15.9994           0
     32796 TIP3     5141     TIP3     H1       HT       0.417000       1.00800           0
     32797 TIP3     5141     TIP3     H2       HT       0.417000       1.00800           0
     32798 TIP3     5142     TIP3     OH2      OT      -0.834000       15.9994           0
     32799 TIP3     5142     TIP3     H1       HT       0.417000       1.00800           0
     32800 TIP3     5142     TIP3     H2       HT       0.417000       1.00800           0
     32801 TIP3     5143     TIP3     OH2      OT      -0.834000       15.9994           0
     32802 TIP3     5143     TIP3     H1       HT       0.417000       1.00800           0
     32803 TIP3     5143     TIP3     H2       HT       0.417000       1.00800           0
     32804 TIP3     5144     TIP3     OH2      OT      -0.834000       15.9994           0
     32805 TIP3     5144     TIP3     H1       HT       0.417000       1.00800           0
     32806 TIP3     5144     TIP3     H2       HT       0.417000       1.00800           0
     32807 TIP3     5145     TIP3     OH2      OT      -0.834000       15.9994           0
     32808 TIP3     5145     TIP3     H1       HT       0.417000       1.00800           0
     32809 TIP3     5145     TIP3     H2       HT       0.417000       1.00800           0
     32810 TIP3     5146     TIP3     OH2      OT      -0.834000       15.9994           0
     32811 TIP3     5146     TIP3     H1       HT       0.417000       1.00800           0
     32812 TIP3     5146     TIP3     H2       HT       0.417000       1.00800           0
     32813 TIP3     5147     TIP3     OH2      OT      -0.834000       15.9994           0
     32814 TIP3     5147     TIP3     H1       HT       0.417000       1.00800           0
     32815 TIP3     5147     TIP3     H2       HT       0.417000       1.00800           0
     32816 TIP3     5148     TIP3     OH2      OT      -0.834000       15.9994           0
     32817 TIP3     5148     TIP3     H1       HT       0.417000       1.00800           0
     32818 TIP3     5148     TIP3     H2       HT       0.417000       1.00800           0
     32819 TIP3     5149     TIP3     OH2      OT      -0.834000       15.9994           0
     32820 TIP3     5149     TIP3     H1       HT       0.417000       1.00800           0
     32821 TIP3     5149     TIP3     H2       HT       0.417000       1.00800           0
     32822 TIP3     5150     TIP3     OH2      OT      -0.834000       15.9994           0
     32823 TIP3     5150     TIP3     H1       HT       0.417000       1.00800           0
     32824 TIP3     5150     TIP3     H2       HT       0.417000       1.00800           0
     32825 TIP3     5151     TIP3     OH2      OT      -0.834000       15.9994           0
     32826 TIP3     5151     TIP3     H1       HT       0.417000       1.00800           0
     32827 TIP3     5151     TIP3     H2       HT       0.417000       1.00800           0
     32828 TIP3     5152     TIP3     OH2      OT      -0.834000       15.9994           0
     32829 TIP3     5152     TIP3     H1       HT       0.417000       1.00800           0
     32830 TIP3     5152     TIP3     H2       HT       0.417000       1.00800           0
     32831 TIP3     5153     TIP3     OH2      OT      -0.834000       15.9994           0
     32832 TIP3     5153     TIP3     H1       HT       0.417000       1.00800           0
     32833 TIP3     5153     TIP3     H2       HT       0.417000       1.00800           0
     32834 TIP3     5154     TIP3     OH2      OT      -0.834000       15.9994           0
     32835 TIP3     5154     TIP3     H1       HT       0.417000       1.00800           0
     32836 TIP3     5154     TIP3     H2       HT       0.417000       1.00800           0
     32837 TIP3     5155     TIP3     OH2      OT      -0.834000       15.9994           0
     32838 TIP3     5155     TIP3     H1       HT       0.417000       1.00800           0
     32839 TIP3     5155     TIP3     H2       HT       0.417000       1.00800           0
     32840 TIP3     5156     TIP3     OH2      OT      -0.834000       15.9994           0
     32841 TIP3     5156     TIP3     H1       HT       0.417000       1.00800           0
     32842 TIP3     5156     TIP3     H2       HT       0.417000       1.00800           0
     32843 TIP3     5157     TIP3     OH2      OT      -0.834000       15.9994           0
     32844 TIP3     5157     TIP3     H1       HT       0.417000       1.00800           0
     32845 TIP3     5157     TIP3     H2       HT       0.417000       1.00800           0
     32846 TIP3     5158     TIP3     OH2      OT      -0.834000       15.9994           0
     32847 TIP3     5158     TIP3     H1       HT       0.417000       1.00800           0
     32848 TIP3     5158     TIP3     H2       HT       0.417000       1.00800           0
     32849 TIP3     5159     TIP3     OH2      OT      -0.834000       15.9994           0
     32850 TIP3     5159     TIP3     H1       HT       0.417000       1.00800           0
     32851 TIP3     5159     TIP3     H2       HT       0.417000       1.00800           0
     32852 TIP3     5160     TIP3     OH2      OT      -0.834000       15.9994           0
     32853 TIP3     5160     TIP3     H1       HT       0.417000       1.00800           0
     32854 TIP3     5160     TIP3     H2       HT       0.417000       1.00800           0
     32855 TIP3     5161     TIP3     OH2      OT      -0.834000       15.9994           0
     32856 TIP3     5161     TIP3     H1       HT       0.417000       1.00800           0
     32857 TIP3     5161     TIP3     H2       HT       0.417000       1.00800           0
     32858 TIP3     5162     TIP3     OH2      OT      -0.834000       15.9994           0
     32859 TIP3     5162     TIP3     H1       HT       0.417000       1.00800           0
     32860 TIP3     5162     TIP3     H2       HT       0.417000       1.00800           0
     32861 TIP3     5163     TIP3     OH2      OT      -0.834000       15.9994           0
     32862 TIP3     5163     TIP3     H1       HT       0.417000       1.00800           0
     32863 TIP3     5163     TIP3     H2       HT       0.417000       1.00800           0
     32864 TIP3     5164     TIP3     OH2      OT      -0.834000       15.9994           0
     32865 TIP3     5164     TIP3     H1       HT       0.417000       1.00800           0
     32866 TIP3     5164     TIP3     H2       HT       0.417000       1.00800           0
     32867 TIP3     5165     TIP3     OH2      OT      -0.834000       15.9994           0
     32868 TIP3     5165     TIP3     H1       HT       0.417000       1.00800           0
     32869 TIP3     5165     TIP3     H2       HT       0.417000       1.00800           0
     32870 TIP3     5166     TIP3     OH2      OT      -0.834000       15.9994           0
     32871 TIP3     5166     TIP3     H1       HT       0.417000       1.00800           0
     32872 TIP3     5166     TIP3     H2       HT       0.417000       1.00800           0
     32873 TIP3     5167     TIP3     OH2      OT      -0.834000       15.9994           0
     32874 TIP3     5167     TIP3     H1       HT       0.417000       1.00800           0
     32875 TIP3     5167     TIP3     H2       HT       0.417000       1.00800           0
     32876 TIP3     5168     TIP3     OH2      OT      -0.834000       15.9994           0
     32877 TIP3     5168     TIP3     H1       HT       0.417000       1.00800           0
     32878 TIP3     5168     TIP3     H2       HT       0.417000       1.00800           0
     32879 TIP3     5169     TIP3     OH2      OT      -0.834000       15.9994           0
     32880 TIP3     5169     TIP3     H1       HT       0.417000       1.00800           0
     32881 TIP3     5169     TIP3     H2       HT       0.417000       1.00800           0
     32882 TIP3     5170     TIP3     OH2      OT      -0.834000       15.9994           0
     32883 TIP3     5170     TIP3     H1       HT       0.417000       1.00800           0
     32884 TIP3     5170     TIP3     H2       HT       0.417000       1.00800           0
     32885 TIP3     5171     TIP3     OH2      OT      -0.834000       15.9994           0
     32886 TIP3     5171     TIP3     H1       HT       0.417000       1.00800           0
     32887 TIP3     5171     TIP3     H2       HT       0.417000       1.00800           0
     32888 TIP3     5172     TIP3     OH2      OT      -0.834000       15.9994           0
     32889 TIP3     5172     TIP3     H1       HT       0.417000       1.00800           0
     32890 TIP3     5172     TIP3     H2       HT       0.417000       1.00800           0
     32891 TIP3     5173     TIP3     OH2      OT      -0.834000       15.9994           0
     32892 TIP3     5173     TIP3     H1       HT       0.417000       1.00800           0
     32893 TIP3     5173     TIP3     H2       HT       0.417000       1.00800           0
     32894 TIP3     5174     TIP3     OH2      OT      -0.834000       15.9994           0
     32895 TIP3     5174     TIP3     H1       HT       0.417000       1.00800           0
     32896 TIP3     5174     TIP3     H2       HT       0.417000       1.00800           0
     32897 TIP3     5175     TIP3     OH2      OT      -0.834000       15.9994           0
     32898 TIP3     5175     TIP3     H1       HT       0.417000       1.00800           0
     32899 TIP3     5175     TIP3     H2       HT       0.417000       1.00800           0
     32900 TIP3     5176     TIP3     OH2      OT      -0.834000       15.9994           0
     32901 TIP3     5176     TIP3     H1       HT       0.417000       1.00800           0
     32902 TIP3     5176     TIP3     H2       HT       0.417000       1.00800           0
     32903 TIP3     5177     TIP3     OH2      OT      -0.834000       15.9994           0
     32904 TIP3     5177     TIP3     H1       HT       0.417000       1.00800           0
     32905 TIP3     5177     TIP3     H2       HT       0.417000       1.00800           0
     32906 TIP3     5178     TIP3     OH2      OT      -0.834000       15.9994           0
     32907 TIP3     5178     TIP3     H1       HT       0.417000       1.00800           0
     32908 TIP3     5178     TIP3     H2       HT       0.417000       1.00800           0
     32909 TIP3     5179     TIP3     OH2      OT      -0.834000       15.9994           0
     32910 TIP3     5179     TIP3     H1       HT       0.417000       1.00800           0
     32911 TIP3     5179     TIP3     H2       HT       0.417000       1.00800           0
     32912 TIP3     5180     TIP3     OH2      OT      -0.834000       15.9994           0
     32913 TIP3     5180     TIP3     H1       HT       0.417000       1.00800           0
     32914 TIP3     5180     TIP3     H2       HT       0.417000       1.00800           0
     32915 TIP3     5181     TIP3     OH2      OT      -0.834000       15.9994           0
     32916 TIP3     5181     TIP3     H1       HT       0.417000       1.00800           0
     32917 TIP3     5181     TIP3     H2       HT       0.417000       1.00800           0
     32918 TIP3     5182     TIP3     OH2      OT      -0.834000       15.9994           0
     32919 TIP3     5182     TIP3     H1       HT       0.417000       1.00800           0
     32920 TIP3     5182     TIP3     H2       HT       0.417000       1.00800           0
     32921 TIP3     5183     TIP3     OH2      OT      -0.834000       15.9994           0
     32922 TIP3     5183     TIP3     H1       HT       0.417000       1.00800           0
     32923 TIP3     5183     TIP3     H2       HT       0.417000       1.00800           0
     32924 TIP3     5184     TIP3     OH2      OT      -0.834000       15.9994           0
     32925 TIP3     5184     TIP3     H1       HT       0.417000       1.00800           0
     32926 TIP3     5184     TIP3     H2       HT       0.417000       1.00800           0
     32927 TIP3     5185     TIP3     OH2      OT      -0.834000       15.9994           0
     32928 TIP3     5185     TIP3     H1       HT       0.417000       1.00800           0
     32929 TIP3     5185     TIP3     H2       HT       0.417000       1.00800           0
     32930 TIP3     5186     TIP3     OH2      OT      -0.834000       15.9994           0
     32931 TIP3     5186     TIP3     H1       HT       0.417000       1.00800           0
     32932 TIP3     5186     TIP3     H2       HT       0.417000       1.00800           0
     32933 TIP3     5187     TIP3     OH2      OT      -0.834000       15.9994           0
     32934 TIP3     5187     TIP3     H1       HT       0.417000       1.00800           0
     32935 TIP3     5187     TIP3     H2       HT       0.417000       1.00800           0
     32936 TIP3     5188     TIP3     OH2      OT      -0.834000       15.9994           0
     32937 TIP3     5188     TIP3     H1       HT       0.417000       1.00800           0
     32938 TIP3     5188     TIP3     H2       HT       0.417000       1.00800           0
     32939 TIP3     5189     TIP3     OH2      OT      -0.834000       15.9994           0
     32940 TIP3     5189     TIP3     H1       HT       0.417000       1.00800           0
     32941 TIP3     5189     TIP3     H2       HT       0.417000       1.00800           0
     32942 TIP3     5190     TIP3     OH2      OT      -0.834000       15.9994           0
     32943 TIP3     5190     TIP3     H1       HT       0.417000       1.00800           0
     32944 TIP3     5190     TIP3     H2       HT       0.417000       1.00800           0
     32945 TIP3     5191     TIP3     OH2      OT      -0.834000       15.9994           0
     32946 TIP3     5191     TIP3     H1       HT       0.417000       1.00800           0
     32947 TIP3     5191     TIP3     H2       HT       0.417000       1.00800           0
     32948 TIP3     5192     TIP3     OH2      OT      -0.834000       15.9994           0
     32949 TIP3     5192     TIP3     H1       HT       0.417000       1.00800           0
     32950 TIP3     5192     TIP3     H2       HT       0.417000       1.00800           0
     32951 TIP3     5193     TIP3     OH2      OT      -0.834000       15.9994           0
     32952 TIP3     5193     TIP3     H1       HT       0.417000       1.00800           0
     32953 TIP3     5193     TIP3     H2       HT       0.417000       1.00800           0
     32954 TIP3     5194     TIP3     OH2      OT      -0.834000       15.9994           0
     32955 TIP3     5194     TIP3     H1       HT       0.417000       1.00800           0
     32956 TIP3     5194     TIP3     H2       HT       0.417000       1.00800           0
     32957 TIP3     5195     TIP3     OH2      OT      -0.834000       15.9994           0
     32958 TIP3     5195     TIP3     H1       HT       0.417000       1.00800           0
     32959 TIP3     5195     TIP3     H2       HT       0.417000       1.00800           0
     32960 TIP3     5196     TIP3     OH2      OT      -0.834000       15.9994           0
     32961 TIP3     5196     TIP3     H1       HT       0.417000       1.00800           0
     32962 TIP3     5196     TIP3     H2       HT       0.417000       1.00800           0
     32963 TIP3     5197     TIP3     OH2      OT      -0.834000       15.9994           0
     32964 TIP3     5197     TIP3     H1       HT       0.417000       1.00800           0
     32965 TIP3     5197     TIP3     H2       HT       0.417000       1.00800           0
     32966 TIP3     5198     TIP3     OH2      OT      -0.834000       15.9994           0
     32967 TIP3     5198     TIP3     H1       HT       0.417000       1.00800           0
     32968 TIP3     5198     TIP3     H2       HT       0.417000       1.00800           0
     32969 TIP3     5199     TIP3     OH2      OT      -0.834000       15.9994           0
     32970 TIP3     5199     TIP3     H1       HT       0.417000       1.00800           0
     32971 TIP3     5199     TIP3     H2       HT       0.417000       1.00800           0
     32972 TIP3     5200     TIP3     OH2      OT      -0.834000       15.9994           0
     32973 TIP3     5200     TIP3     H1       HT       0.417000       1.00800           0
     32974 TIP3     5200     TIP3     H2       HT       0.417000       1.00800           0
     32975 TIP3     5201     TIP3     OH2      OT      -0.834000       15.9994           0
     32976 TIP3     5201     TIP3     H1       HT       0.417000       1.00800           0
     32977 TIP3     5201     TIP3     H2       HT       0.417000       1.00800           0
     32978 TIP3     5202     TIP3     OH2      OT      -0.834000       15.9994           0
     32979 TIP3     5202     TIP3     H1       HT       0.417000       1.00800           0
     32980 TIP3     5202     TIP3     H2       HT       0.417000       1.00800           0
     32981 TIP3     5203     TIP3     OH2      OT      -0.834000       15.9994           0
     32982 TIP3     5203     TIP3     H1       HT       0.417000       1.00800           0
     32983 TIP3     5203     TIP3     H2       HT       0.417000       1.00800           0
     32984 TIP3     5204     TIP3     OH2      OT      -0.834000       15.9994           0
     32985 TIP3     5204     TIP3     H1       HT       0.417000       1.00800           0
     32986 TIP3     5204     TIP3     H2       HT       0.417000       1.00800           0
     32987 TIP3     5205     TIP3     OH2      OT      -0.834000       15.9994           0
     32988 TIP3     5205     TIP3     H1       HT       0.417000       1.00800           0
     32989 TIP3     5205     TIP3     H2       HT       0.417000       1.00800           0
     32990 TIP3     5206     TIP3     OH2      OT      -0.834000       15.9994           0
     32991 TIP3     5206     TIP3     H1       HT       0.417000       1.00800           0
     32992 TIP3     5206     TIP3     H2       HT       0.417000       1.00800           0
     32993 TIP3     5207     TIP3     OH2      OT      -0.834000       15.9994           0
     32994 TIP3     5207     TIP3     H1       HT       0.417000       1.00800           0
     32995 TIP3     5207     TIP3     H2       HT       0.417000       1.00800           0
     32996 TIP3     5208     TIP3     OH2      OT      -0.834000       15.9994           0
     32997 TIP3     5208     TIP3     H1       HT       0.417000       1.00800           0
     32998 TIP3     5208     TIP3     H2       HT       0.417000       1.00800           0
     32999 TIP3     5209     TIP3     OH2      OT      -0.834000       15.9994           0
     33000 TIP3     5209     TIP3     H1       HT       0.417000       1.00800           0
     33001 TIP3     5209     TIP3     H2       HT       0.417000       1.00800           0
     33002 TIP3     5210     TIP3     OH2      OT      -0.834000       15.9994           0
     33003 TIP3     5210     TIP3     H1       HT       0.417000       1.00800           0
     33004 TIP3     5210     TIP3     H2       HT       0.417000       1.00800           0
     33005 TIP3     5211     TIP3     OH2      OT      -0.834000       15.9994           0
     33006 TIP3     5211     TIP3     H1       HT       0.417000       1.00800           0
     33007 TIP3     5211     TIP3     H2       HT       0.417000       1.00800           0
     33008 TIP3     5212     TIP3     OH2      OT      -0.834000       15.9994           0
     33009 TIP3     5212     TIP3     H1       HT       0.417000       1.00800           0
     33010 TIP3     5212     TIP3     H2       HT       0.417000       1.00800           0
     33011 TIP3     5213     TIP3     OH2      OT      -0.834000       15.9994           0
     33012 TIP3     5213     TIP3     H1       HT       0.417000       1.00800           0
     33013 TIP3     5213     TIP3     H2       HT       0.417000       1.00800           0
     33014 TIP3     5214     TIP3     OH2      OT      -0.834000       15.9994           0
     33015 TIP3     5214     TIP3     H1       HT       0.417000       1.00800           0
     33016 TIP3     5214     TIP3     H2       HT       0.417000       1.00800           0
     33017 TIP3     5215     TIP3     OH2      OT      -0.834000       15.9994           0
     33018 TIP3     5215     TIP3     H1       HT       0.417000       1.00800           0
     33019 TIP3     5215     TIP3     H2       HT       0.417000       1.00800           0
     33020 TIP3     5216     TIP3     OH2      OT      -0.834000       15.9994           0
     33021 TIP3     5216     TIP3     H1       HT       0.417000       1.00800           0
     33022 TIP3     5216     TIP3     H2       HT       0.417000       1.00800           0
     33023 TIP3     5217     TIP3     OH2      OT      -0.834000       15.9994           0
     33024 TIP3     5217     TIP3     H1       HT       0.417000       1.00800           0
     33025 TIP3     5217     TIP3     H2       HT       0.417000       1.00800           0
     33026 TIP3     5218     TIP3     OH2      OT      -0.834000       15.9994           0
     33027 TIP3     5218     TIP3     H1       HT       0.417000       1.00800           0
     33028 TIP3     5218     TIP3     H2       HT       0.417000       1.00800           0
     33029 TIP3     5219     TIP3     OH2      OT      -0.834000       15.9994           0
     33030 TIP3     5219     TIP3     H1       HT       0.417000       1.00800           0
     33031 TIP3     5219     TIP3     H2       HT       0.417000       1.00800           0
     33032 TIP3     5220     TIP3     OH2      OT      -0.834000       15.9994           0
     33033 TIP3     5220     TIP3     H1       HT       0.417000       1.00800           0
     33034 TIP3     5220     TIP3     H2       HT       0.417000       1.00800           0
     33035 TIP3     5221     TIP3     OH2      OT      -0.834000       15.9994           0
     33036 TIP3     5221     TIP3     H1       HT       0.417000       1.00800           0
     33037 TIP3     5221     TIP3     H2       HT       0.417000       1.00800           0
     33038 TIP3     5222     TIP3     OH2      OT      -0.834000       15.9994           0
     33039 TIP3     5222     TIP3     H1       HT       0.417000       1.00800           0
     33040 TIP3     5222     TIP3     H2       HT       0.417000       1.00800           0
     33041 TIP3     5223     TIP3     OH2      OT      -0.834000       15.9994           0
     33042 TIP3     5223     TIP3     H1       HT       0.417000       1.00800           0
     33043 TIP3     5223     TIP3     H2       HT       0.417000       1.00800           0
     33044 TIP3     5224     TIP3     OH2      OT      -0.834000       15.9994           0
     33045 TIP3     5224     TIP3     H1       HT       0.417000       1.00800           0
     33046 TIP3     5224     TIP3     H2       HT       0.417000       1.00800           0
     33047 TIP3     5225     TIP3     OH2      OT      -0.834000       15.9994           0
     33048 TIP3     5225     TIP3     H1       HT       0.417000       1.00800           0
     33049 TIP3     5225     TIP3     H2       HT       0.417000       1.00800           0
     33050 TIP3     5226     TIP3     OH2      OT      -0.834000       15.9994           0
     33051 TIP3     5226     TIP3     H1       HT       0.417000       1.00800           0
     33052 TIP3     5226     TIP3     H2       HT       0.417000       1.00800           0
     33053 TIP3     5227     TIP3     OH2      OT      -0.834000       15.9994           0
     33054 TIP3     5227     TIP3     H1       HT       0.417000       1.00800           0
     33055 TIP3     5227     TIP3     H2       HT       0.417000       1.00800           0
     33056 TIP3     5228     TIP3     OH2      OT      -0.834000       15.9994           0
     33057 TIP3     5228     TIP3     H1       HT       0.417000       1.00800           0
     33058 TIP3     5228     TIP3     H2       HT       0.417000       1.00800           0
     33059 TIP3     5229     TIP3     OH2      OT      -0.834000       15.9994           0
     33060 TIP3     5229     TIP3     H1       HT       0.417000       1.00800           0
     33061 TIP3     5229     TIP3     H2       HT       0.417000       1.00800           0
     33062 TIP3     5230     TIP3     OH2      OT      -0.834000       15.9994           0
     33063 TIP3     5230     TIP3     H1       HT       0.417000       1.00800           0
     33064 TIP3     5230     TIP3     H2       HT       0.417000       1.00800           0
     33065 TIP3     5231     TIP3     OH2      OT      -0.834000       15.9994           0
     33066 TIP3     5231     TIP3     H1       HT       0.417000       1.00800           0
     33067 TIP3     5231     TIP3     H2       HT       0.417000       1.00800           0
     33068 TIP3     5232     TIP3     OH2      OT      -0.834000       15.9994           0
     33069 TIP3     5232     TIP3     H1       HT       0.417000       1.00800           0
     33070 TIP3     5232     TIP3     H2       HT       0.417000       1.00800           0
     33071 TIP3     5233     TIP3     OH2      OT      -0.834000       15.9994           0
     33072 TIP3     5233     TIP3     H1       HT       0.417000       1.00800           0
     33073 TIP3     5233     TIP3     H2       HT       0.417000       1.00800           0
     33074 TIP3     5234     TIP3     OH2      OT      -0.834000       15.9994           0
     33075 TIP3     5234     TIP3     H1       HT       0.417000       1.00800           0
     33076 TIP3     5234     TIP3     H2       HT       0.417000       1.00800           0
     33077 TIP3     5235     TIP3     OH2      OT      -0.834000       15.9994           0
     33078 TIP3     5235     TIP3     H1       HT       0.417000       1.00800           0
     33079 TIP3     5235     TIP3     H2       HT       0.417000       1.00800           0
     33080 TIP3     5236     TIP3     OH2      OT      -0.834000       15.9994           0
     33081 TIP3     5236     TIP3     H1       HT       0.417000       1.00800           0
     33082 TIP3     5236     TIP3     H2       HT       0.417000       1.00800           0
     33083 TIP3     5237     TIP3     OH2      OT      -0.834000       15.9994           0
     33084 TIP3     5237     TIP3     H1       HT       0.417000       1.00800           0
     33085 TIP3     5237     TIP3     H2       HT       0.417000       1.00800           0
     33086 TIP3     5238     TIP3     OH2      OT      -0.834000       15.9994           0
     33087 TIP3     5238     TIP3     H1       HT       0.417000       1.00800           0
     33088 TIP3     5238     TIP3     H2       HT       0.417000       1.00800           0
     33089 TIP3     5239     TIP3     OH2      OT      -0.834000       15.9994           0
     33090 TIP3     5239     TIP3     H1       HT       0.417000       1.00800           0
     33091 TIP3     5239     TIP3     H2       HT       0.417000       1.00800           0
     33092 TIP3     5240     TIP3     OH2      OT      -0.834000       15.9994           0
     33093 TIP3     5240     TIP3     H1       HT       0.417000       1.00800           0
     33094 TIP3     5240     TIP3     H2       HT       0.417000       1.00800           0
     33095 TIP3     5241     TIP3     OH2      OT      -0.834000       15.9994           0
     33096 TIP3     5241     TIP3     H1       HT       0.417000       1.00800           0
     33097 TIP3     5241     TIP3     H2       HT       0.417000       1.00800           0
     33098 TIP3     5242     TIP3     OH2      OT      -0.834000       15.9994           0
     33099 TIP3     5242     TIP3     H1       HT       0.417000       1.00800           0
     33100 TIP3     5242     TIP3     H2       HT       0.417000       1.00800           0
     33101 TIP3     5243     TIP3     OH2      OT      -0.834000       15.9994           0
     33102 TIP3     5243     TIP3     H1       HT       0.417000       1.00800           0
     33103 TIP3     5243     TIP3     H2       HT       0.417000       1.00800           0
     33104 TIP3     5244     TIP3     OH2      OT      -0.834000       15.9994           0
     33105 TIP3     5244     TIP3     H1       HT       0.417000       1.00800           0
     33106 TIP3     5244     TIP3     H2       HT       0.417000       1.00800           0
     33107 TIP3     5245     TIP3     OH2      OT      -0.834000       15.9994           0
     33108 TIP3     5245     TIP3     H1       HT       0.417000       1.00800           0
     33109 TIP3     5245     TIP3     H2       HT       0.417000       1.00800           0
     33110 TIP3     5246     TIP3     OH2      OT      -0.834000       15.9994           0
     33111 TIP3     5246     TIP3     H1       HT       0.417000       1.00800           0
     33112 TIP3     5246     TIP3     H2       HT       0.417000       1.00800           0
     33113 TIP3     5247     TIP3     OH2      OT      -0.834000       15.9994           0
     33114 TIP3     5247     TIP3     H1       HT       0.417000       1.00800           0
     33115 TIP3     5247     TIP3     H2       HT       0.417000       1.00800           0
     33116 TIP3     5248     TIP3     OH2      OT      -0.834000       15.9994           0
     33117 TIP3     5248     TIP3     H1       HT       0.417000       1.00800           0
     33118 TIP3     5248     TIP3     H2       HT       0.417000       1.00800           0
     33119 TIP3     5249     TIP3     OH2      OT      -0.834000       15.9994           0
     33120 TIP3     5249     TIP3     H1       HT       0.417000       1.00800           0
     33121 TIP3     5249     TIP3     H2       HT       0.417000       1.00800           0
     33122 TIP3     5250     TIP3     OH2      OT      -0.834000       15.9994           0
     33123 TIP3     5250     TIP3     H1       HT       0.417000       1.00800           0
     33124 TIP3     5250     TIP3     H2       HT       0.417000       1.00800           0
     33125 TIP3     5251     TIP3     OH2      OT      -0.834000       15.9994           0
     33126 TIP3     5251     TIP3     H1       HT       0.417000       1.00800           0
     33127 TIP3     5251     TIP3     H2       HT       0.417000       1.00800           0
     33128 TIP3     5252     TIP3     OH2      OT      -0.834000       15.9994           0
     33129 TIP3     5252     TIP3     H1       HT       0.417000       1.00800           0
     33130 TIP3     5252     TIP3     H2       HT       0.417000       1.00800           0
     33131 TIP3     5253     TIP3     OH2      OT      -0.834000       15.9994           0
     33132 TIP3     5253     TIP3     H1       HT       0.417000       1.00800           0
     33133 TIP3     5253     TIP3     H2       HT       0.417000       1.00800           0
     33134 TIP3     5254     TIP3     OH2      OT      -0.834000       15.9994           0
     33135 TIP3     5254     TIP3     H1       HT       0.417000       1.00800           0
     33136 TIP3     5254     TIP3     H2       HT       0.417000       1.00800           0
     33137 TIP3     5255     TIP3     OH2      OT      -0.834000       15.9994           0
     33138 TIP3     5255     TIP3     H1       HT       0.417000       1.00800           0
     33139 TIP3     5255     TIP3     H2       HT       0.417000       1.00800           0
     33140 TIP3     5256     TIP3     OH2      OT      -0.834000       15.9994           0
     33141 TIP3     5256     TIP3     H1       HT       0.417000       1.00800           0
     33142 TIP3     5256     TIP3     H2       HT       0.417000       1.00800           0
     33143 TIP3     5257     TIP3     OH2      OT      -0.834000       15.9994           0
     33144 TIP3     5257     TIP3     H1       HT       0.417000       1.00800           0
     33145 TIP3     5257     TIP3     H2       HT       0.417000       1.00800           0
     33146 TIP3     5258     TIP3     OH2      OT      -0.834000       15.9994           0
     33147 TIP3     5258     TIP3     H1       HT       0.417000       1.00800           0
     33148 TIP3     5258     TIP3     H2       HT       0.417000       1.00800           0
     33149 TIP3     5259     TIP3     OH2      OT      -0.834000       15.9994           0
     33150 TIP3     5259     TIP3     H1       HT       0.417000       1.00800           0
     33151 TIP3     5259     TIP3     H2       HT       0.417000       1.00800           0
     33152 TIP3     5260     TIP3     OH2      OT      -0.834000       15.9994           0
     33153 TIP3     5260     TIP3     H1       HT       0.417000       1.00800           0
     33154 TIP3     5260     TIP3     H2       HT       0.417000       1.00800           0
     33155 TIP3     5261     TIP3     OH2      OT      -0.834000       15.9994           0
     33156 TIP3     5261     TIP3     H1       HT       0.417000       1.00800           0
     33157 TIP3     5261     TIP3     H2       HT       0.417000       1.00800           0
     33158 TIP3     5262     TIP3     OH2      OT      -0.834000       15.9994           0
     33159 TIP3     5262     TIP3     H1       HT       0.417000       1.00800           0
     33160 TIP3     5262     TIP3     H2       HT       0.417000       1.00800           0
     33161 TIP3     5263     TIP3     OH2      OT      -0.834000       15.9994           0
     33162 TIP3     5263     TIP3     H1       HT       0.417000       1.00800           0
     33163 TIP3     5263     TIP3     H2       HT       0.417000       1.00800           0
     33164 TIP3     5264     TIP3     OH2      OT      -0.834000       15.9994           0
     33165 TIP3     5264     TIP3     H1       HT       0.417000       1.00800           0
     33166 TIP3     5264     TIP3     H2       HT       0.417000       1.00800           0
     33167 TIP3     5265     TIP3     OH2      OT      -0.834000       15.9994           0
     33168 TIP3     5265     TIP3     H1       HT       0.417000       1.00800           0
     33169 TIP3     5265     TIP3     H2       HT       0.417000       1.00800           0
     33170 TIP3     5266     TIP3     OH2      OT      -0.834000       15.9994           0
     33171 TIP3     5266     TIP3     H1       HT       0.417000       1.00800           0
     33172 TIP3     5266     TIP3     H2       HT       0.417000       1.00800           0
     33173 TIP3     5267     TIP3     OH2      OT      -0.834000       15.9994           0
     33174 TIP3     5267     TIP3     H1       HT       0.417000       1.00800           0
     33175 TIP3     5267     TIP3     H2       HT       0.417000       1.00800           0
     33176 TIP3     5268     TIP3     OH2      OT      -0.834000       15.9994           0
     33177 TIP3     5268     TIP3     H1       HT       0.417000       1.00800           0
     33178 TIP3     5268     TIP3     H2       HT       0.417000       1.00800           0
     33179 TIP3     5269     TIP3     OH2      OT      -0.834000       15.9994           0
     33180 TIP3     5269     TIP3     H1       HT       0.417000       1.00800           0
     33181 TIP3     5269     TIP3     H2       HT       0.417000       1.00800           0
     33182 TIP3     5270     TIP3     OH2      OT      -0.834000       15.9994           0
     33183 TIP3     5270     TIP3     H1       HT       0.417000       1.00800           0
     33184 TIP3     5270     TIP3     H2       HT       0.417000       1.00800           0
     33185 TIP3     5271     TIP3     OH2      OT      -0.834000       15.9994           0
     33186 TIP3     5271     TIP3     H1       HT       0.417000       1.00800           0
     33187 TIP3     5271     TIP3     H2       HT       0.417000       1.00800           0
     33188 TIP3     5272     TIP3     OH2      OT      -0.834000       15.9994           0
     33189 TIP3     5272     TIP3     H1       HT       0.417000       1.00800           0
     33190 TIP3     5272     TIP3     H2       HT       0.417000       1.00800           0
     33191 TIP3     5273     TIP3     OH2      OT      -0.834000       15.9994           0
     33192 TIP3     5273     TIP3     H1       HT       0.417000       1.00800           0
     33193 TIP3     5273     TIP3     H2       HT       0.417000       1.00800           0
     33194 TIP3     5274     TIP3     OH2      OT      -0.834000       15.9994           0
     33195 TIP3     5274     TIP3     H1       HT       0.417000       1.00800           0
     33196 TIP3     5274     TIP3     H2       HT       0.417000       1.00800           0
     33197 TIP3     5275     TIP3     OH2      OT      -0.834000       15.9994           0
     33198 TIP3     5275     TIP3     H1       HT       0.417000       1.00800           0
     33199 TIP3     5275     TIP3     H2       HT       0.417000       1.00800           0
     33200 TIP3     5276     TIP3     OH2      OT      -0.834000       15.9994           0
     33201 TIP3     5276     TIP3     H1       HT       0.417000       1.00800           0
     33202 TIP3     5276     TIP3     H2       HT       0.417000       1.00800           0
     33203 TIP3     5277     TIP3     OH2      OT      -0.834000       15.9994           0
     33204 TIP3     5277     TIP3     H1       HT       0.417000       1.00800           0
     33205 TIP3     5277     TIP3     H2       HT       0.417000       1.00800           0
     33206 TIP3     5278     TIP3     OH2      OT      -0.834000       15.9994           0
     33207 TIP3     5278     TIP3     H1       HT       0.417000       1.00800           0
     33208 TIP3     5278     TIP3     H2       HT       0.417000       1.00800           0
     33209 TIP3     5279     TIP3     OH2      OT      -0.834000       15.9994           0
     33210 TIP3     5279     TIP3     H1       HT       0.417000       1.00800           0
     33211 TIP3     5279     TIP3     H2       HT       0.417000       1.00800           0
     33212 TIP3     5280     TIP3     OH2      OT      -0.834000       15.9994           0
     33213 TIP3     5280     TIP3     H1       HT       0.417000       1.00800           0
     33214 TIP3     5280     TIP3     H2       HT       0.417000       1.00800           0
     33215 TIP3     5281     TIP3     OH2      OT      -0.834000       15.9994           0
     33216 TIP3     5281     TIP3     H1       HT       0.417000       1.00800           0
     33217 TIP3     5281     TIP3     H2       HT       0.417000       1.00800           0
     33218 TIP3     5282     TIP3     OH2      OT      -0.834000       15.9994           0
     33219 TIP3     5282     TIP3     H1       HT       0.417000       1.00800           0
     33220 TIP3     5282     TIP3     H2       HT       0.417000       1.00800           0
     33221 TIP3     5283     TIP3     OH2      OT      -0.834000       15.9994           0
     33222 TIP3     5283     TIP3     H1       HT       0.417000       1.00800           0
     33223 TIP3     5283     TIP3     H2       HT       0.417000       1.00800           0
     33224 TIP3     5284     TIP3     OH2      OT      -0.834000       15.9994           0
     33225 TIP3     5284     TIP3     H1       HT       0.417000       1.00800           0
     33226 TIP3     5284     TIP3     H2       HT       0.417000       1.00800           0
     33227 TIP3     5285     TIP3     OH2      OT      -0.834000       15.9994           0
     33228 TIP3     5285     TIP3     H1       HT       0.417000       1.00800           0
     33229 TIP3     5285     TIP3     H2       HT       0.417000       1.00800           0
     33230 TIP3     5286     TIP3     OH2      OT      -0.834000       15.9994           0
     33231 TIP3     5286     TIP3     H1       HT       0.417000       1.00800           0
     33232 TIP3     5286     TIP3     H2       HT       0.417000       1.00800           0
     33233 TIP3     5287     TIP3     OH2      OT      -0.834000       15.9994           0
     33234 TIP3     5287     TIP3     H1       HT       0.417000       1.00800           0
     33235 TIP3     5287     TIP3     H2       HT       0.417000       1.00800           0
     33236 TIP3     5288     TIP3     OH2      OT      -0.834000       15.9994           0
     33237 TIP3     5288     TIP3     H1       HT       0.417000       1.00800           0
     33238 TIP3     5288     TIP3     H2       HT       0.417000       1.00800           0
     33239 TIP3     5289     TIP3     OH2      OT      -0.834000       15.9994           0
     33240 TIP3     5289     TIP3     H1       HT       0.417000       1.00800           0
     33241 TIP3     5289     TIP3     H2       HT       0.417000       1.00800           0
     33242 TIP3     5290     TIP3     OH2      OT      -0.834000       15.9994           0
     33243 TIP3     5290     TIP3     H1       HT       0.417000       1.00800           0
     33244 TIP3     5290     TIP3     H2       HT       0.417000       1.00800           0
     33245 TIP3     5291     TIP3     OH2      OT      -0.834000       15.9994           0
     33246 TIP3     5291     TIP3     H1       HT       0.417000       1.00800           0
     33247 TIP3     5291     TIP3     H2       HT       0.417000       1.00800           0
     33248 TIP3     5292     TIP3     OH2      OT      -0.834000       15.9994           0
     33249 TIP3     5292     TIP3     H1       HT       0.417000       1.00800           0
     33250 TIP3     5292     TIP3     H2       HT       0.417000       1.00800           0
     33251 TIP3     5293     TIP3     OH2      OT      -0.834000       15.9994           0
     33252 TIP3     5293     TIP3     H1       HT       0.417000       1.00800           0
     33253 TIP3     5293     TIP3     H2       HT       0.417000       1.00800           0
     33254 TIP3     5294     TIP3     OH2      OT      -0.834000       15.9994           0
     33255 TIP3     5294     TIP3     H1       HT       0.417000       1.00800           0
     33256 TIP3     5294     TIP3     H2       HT       0.417000       1.00800           0
     33257 TIP3     5295     TIP3     OH2      OT      -0.834000       15.9994           0
     33258 TIP3     5295     TIP3     H1       HT       0.417000       1.00800           0
     33259 TIP3     5295     TIP3     H2       HT       0.417000       1.00800           0
     33260 TIP3     5296     TIP3     OH2      OT      -0.834000       15.9994           0
     33261 TIP3     5296     TIP3     H1       HT       0.417000       1.00800           0
     33262 TIP3     5296     TIP3     H2       HT       0.417000       1.00800           0
     33263 TIP3     5297     TIP3     OH2      OT      -0.834000       15.9994           0
     33264 TIP3     5297     TIP3     H1       HT       0.417000       1.00800           0
     33265 TIP3     5297     TIP3     H2       HT       0.417000       1.00800           0
     33266 TIP3     5298     TIP3     OH2      OT      -0.834000       15.9994           0
     33267 TIP3     5298     TIP3     H1       HT       0.417000       1.00800           0
     33268 TIP3     5298     TIP3     H2       HT       0.417000       1.00800           0
     33269 TIP3     5299     TIP3     OH2      OT      -0.834000       15.9994           0
     33270 TIP3     5299     TIP3     H1       HT       0.417000       1.00800           0
     33271 TIP3     5299     TIP3     H2       HT       0.417000       1.00800           0
     33272 TIP3     5300     TIP3     OH2      OT      -0.834000       15.9994           0
     33273 TIP3     5300     TIP3     H1       HT       0.417000       1.00800           0
     33274 TIP3     5300     TIP3     H2       HT       0.417000       1.00800           0
     33275 TIP3     5301     TIP3     OH2      OT      -0.834000       15.9994           0
     33276 TIP3     5301     TIP3     H1       HT       0.417000       1.00800           0
     33277 TIP3     5301     TIP3     H2       HT       0.417000       1.00800           0
     33278 TIP3     5302     TIP3     OH2      OT      -0.834000       15.9994           0
     33279 TIP3     5302     TIP3     H1       HT       0.417000       1.00800           0
     33280 TIP3     5302     TIP3     H2       HT       0.417000       1.00800           0
     33281 TIP3     5303     TIP3     OH2      OT      -0.834000       15.9994           0
     33282 TIP3     5303     TIP3     H1       HT       0.417000       1.00800           0
     33283 TIP3     5303     TIP3     H2       HT       0.417000       1.00800           0
     33284 TIP3     5304     TIP3     OH2      OT      -0.834000       15.9994           0
     33285 TIP3     5304     TIP3     H1       HT       0.417000       1.00800           0
     33286 TIP3     5304     TIP3     H2       HT       0.417000       1.00800           0
     33287 TIP3     5305     TIP3     OH2      OT      -0.834000       15.9994           0
     33288 TIP3     5305     TIP3     H1       HT       0.417000       1.00800           0
     33289 TIP3     5305     TIP3     H2       HT       0.417000       1.00800           0
     33290 TIP3     5306     TIP3     OH2      OT      -0.834000       15.9994           0
     33291 TIP3     5306     TIP3     H1       HT       0.417000       1.00800           0
     33292 TIP3     5306     TIP3     H2       HT       0.417000       1.00800           0
     33293 TIP3     5307     TIP3     OH2      OT      -0.834000       15.9994           0
     33294 TIP3     5307     TIP3     H1       HT       0.417000       1.00800           0
     33295 TIP3     5307     TIP3     H2       HT       0.417000       1.00800           0
     33296 TIP3     5308     TIP3     OH2      OT      -0.834000       15.9994           0
     33297 TIP3     5308     TIP3     H1       HT       0.417000       1.00800           0
     33298 TIP3     5308     TIP3     H2       HT       0.417000       1.00800           0
     33299 TIP3     5309     TIP3     OH2      OT      -0.834000       15.9994           0
     33300 TIP3     5309     TIP3     H1       HT       0.417000       1.00800           0
     33301 TIP3     5309     TIP3     H2       HT       0.417000       1.00800           0
     33302 TIP3     5310     TIP3     OH2      OT      -0.834000       15.9994           0
     33303 TIP3     5310     TIP3     H1       HT       0.417000       1.00800           0
     33304 TIP3     5310     TIP3     H2       HT       0.417000       1.00800           0
     33305 TIP3     5311     TIP3     OH2      OT      -0.834000       15.9994           0
     33306 TIP3     5311     TIP3     H1       HT       0.417000       1.00800           0
     33307 TIP3     5311     TIP3     H2       HT       0.417000       1.00800           0
     33308 TIP3     5312     TIP3     OH2      OT      -0.834000       15.9994           0
     33309 TIP3     5312     TIP3     H1       HT       0.417000       1.00800           0
     33310 TIP3     5312     TIP3     H2       HT       0.417000       1.00800           0
     33311 TIP3     5313     TIP3     OH2      OT      -0.834000       15.9994           0
     33312 TIP3     5313     TIP3     H1       HT       0.417000       1.00800           0
     33313 TIP3     5313     TIP3     H2       HT       0.417000       1.00800           0
     33314 TIP3     5314     TIP3     OH2      OT      -0.834000       15.9994           0
     33315 TIP3     5314     TIP3     H1       HT       0.417000       1.00800           0
     33316 TIP3     5314     TIP3     H2       HT       0.417000       1.00800           0
     33317 TIP3     5315     TIP3     OH2      OT      -0.834000       15.9994           0
     33318 TIP3     5315     TIP3     H1       HT       0.417000       1.00800           0
     33319 TIP3     5315     TIP3     H2       HT       0.417000       1.00800           0
     33320 TIP3     5316     TIP3     OH2      OT      -0.834000       15.9994           0
     33321 TIP3     5316     TIP3     H1       HT       0.417000       1.00800           0
     33322 TIP3     5316     TIP3     H2       HT       0.417000       1.00800           0
     33323 TIP3     5317     TIP3     OH2      OT      -0.834000       15.9994           0
     33324 TIP3     5317     TIP3     H1       HT       0.417000       1.00800           0
     33325 TIP3     5317     TIP3     H2       HT       0.417000       1.00800           0
     33326 TIP3     5318     TIP3     OH2      OT      -0.834000       15.9994           0
     33327 TIP3     5318     TIP3     H1       HT       0.417000       1.00800           0
     33328 TIP3     5318     TIP3     H2       HT       0.417000       1.00800           0
     33329 TIP3     5319     TIP3     OH2      OT      -0.834000       15.9994           0
     33330 TIP3     5319     TIP3     H1       HT       0.417000       1.00800           0
     33331 TIP3     5319     TIP3     H2       HT       0.417000       1.00800           0
     33332 TIP3     5320     TIP3     OH2      OT      -0.834000       15.9994           0
     33333 TIP3     5320     TIP3     H1       HT       0.417000       1.00800           0
     33334 TIP3     5320     TIP3     H2       HT       0.417000       1.00800           0
     33335 TIP3     5321     TIP3     OH2      OT      -0.834000       15.9994           0
     33336 TIP3     5321     TIP3     H1       HT       0.417000       1.00800           0
     33337 TIP3     5321     TIP3     H2       HT       0.417000       1.00800           0
     33338 TIP3     5322     TIP3     OH2      OT      -0.834000       15.9994           0
     33339 TIP3     5322     TIP3     H1       HT       0.417000       1.00800           0
     33340 TIP3     5322     TIP3     H2       HT       0.417000       1.00800           0
     33341 TIP3     5323     TIP3     OH2      OT      -0.834000       15.9994           0
     33342 TIP3     5323     TIP3     H1       HT       0.417000       1.00800           0
     33343 TIP3     5323     TIP3     H2       HT       0.417000       1.00800           0
     33344 TIP3     5324     TIP3     OH2      OT      -0.834000       15.9994           0
     33345 TIP3     5324     TIP3     H1       HT       0.417000       1.00800           0
     33346 TIP3     5324     TIP3     H2       HT       0.417000       1.00800           0
     33347 TIP3     5325     TIP3     OH2      OT      -0.834000       15.9994           0
     33348 TIP3     5325     TIP3     H1       HT       0.417000       1.00800           0
     33349 TIP3     5325     TIP3     H2       HT       0.417000       1.00800           0
     33350 TIP3     5326     TIP3     OH2      OT      -0.834000       15.9994           0
     33351 TIP3     5326     TIP3     H1       HT       0.417000       1.00800           0
     33352 TIP3     5326     TIP3     H2       HT       0.417000       1.00800           0
     33353 TIP3     5327     TIP3     OH2      OT      -0.834000       15.9994           0
     33354 TIP3     5327     TIP3     H1       HT       0.417000       1.00800           0
     33355 TIP3     5327     TIP3     H2       HT       0.417000       1.00800           0
     33356 TIP3     5328     TIP3     OH2      OT      -0.834000       15.9994           0
     33357 TIP3     5328     TIP3     H1       HT       0.417000       1.00800           0
     33358 TIP3     5328     TIP3     H2       HT       0.417000       1.00800           0
     33359 TIP3     5329     TIP3     OH2      OT      -0.834000       15.9994           0
     33360 TIP3     5329     TIP3     H1       HT       0.417000       1.00800           0
     33361 TIP3     5329     TIP3     H2       HT       0.417000       1.00800           0
     33362 TIP3     5330     TIP3     OH2      OT      -0.834000       15.9994           0
     33363 TIP3     5330     TIP3     H1       HT       0.417000       1.00800           0
     33364 TIP3     5330     TIP3     H2       HT       0.417000       1.00800           0
     33365 TIP3     5331     TIP3     OH2      OT      -0.834000       15.9994           0
     33366 TIP3     5331     TIP3     H1       HT       0.417000       1.00800           0
     33367 TIP3     5331     TIP3     H2       HT       0.417000       1.00800           0
     33368 TIP3     5332     TIP3     OH2      OT      -0.834000       15.9994           0
     33369 TIP3     5332     TIP3     H1       HT       0.417000       1.00800           0
     33370 TIP3     5332     TIP3     H2       HT       0.417000       1.00800           0
     33371 TIP3     5333     TIP3     OH2      OT      -0.834000       15.9994           0
     33372 TIP3     5333     TIP3     H1       HT       0.417000       1.00800           0
     33373 TIP3     5333     TIP3     H2       HT       0.417000       1.00800           0
     33374 TIP3     5334     TIP3     OH2      OT      -0.834000       15.9994           0
     33375 TIP3     5334     TIP3     H1       HT       0.417000       1.00800           0
     33376 TIP3     5334     TIP3     H2       HT       0.417000       1.00800           0
     33377 TIP3     5335     TIP3     OH2      OT      -0.834000       15.9994           0
     33378 TIP3     5335     TIP3     H1       HT       0.417000       1.00800           0
     33379 TIP3     5335     TIP3     H2       HT       0.417000       1.00800           0
     33380 TIP3     5336     TIP3     OH2      OT      -0.834000       15.9994           0
     33381 TIP3     5336     TIP3     H1       HT       0.417000       1.00800           0
     33382 TIP3     5336     TIP3     H2       HT       0.417000       1.00800           0
     33383 TIP3     5337     TIP3     OH2      OT      -0.834000       15.9994           0
     33384 TIP3     5337     TIP3     H1       HT       0.417000       1.00800           0
     33385 TIP3     5337     TIP3     H2       HT       0.417000       1.00800           0
     33386 TIP3     5338     TIP3     OH2      OT      -0.834000       15.9994           0
     33387 TIP3     5338     TIP3     H1       HT       0.417000       1.00800           0
     33388 TIP3     5338     TIP3     H2       HT       0.417000       1.00800           0
     33389 TIP3     5339     TIP3     OH2      OT      -0.834000       15.9994           0
     33390 TIP3     5339     TIP3     H1       HT       0.417000       1.00800           0
     33391 TIP3     5339     TIP3     H2       HT       0.417000       1.00800           0
     33392 TIP3     5340     TIP3     OH2      OT      -0.834000       15.9994           0
     33393 TIP3     5340     TIP3     H1       HT       0.417000       1.00800           0
     33394 TIP3     5340     TIP3     H2       HT       0.417000       1.00800           0
     33395 TIP3     5341     TIP3     OH2      OT      -0.834000       15.9994           0
     33396 TIP3     5341     TIP3     H1       HT       0.417000       1.00800           0
     33397 TIP3     5341     TIP3     H2       HT       0.417000       1.00800           0
     33398 TIP3     5342     TIP3     OH2      OT      -0.834000       15.9994           0
     33399 TIP3     5342     TIP3     H1       HT       0.417000       1.00800           0
     33400 TIP3     5342     TIP3     H2       HT       0.417000       1.00800           0
     33401 TIP3     5343     TIP3     OH2      OT      -0.834000       15.9994           0
     33402 TIP3     5343     TIP3     H1       HT       0.417000       1.00800           0
     33403 TIP3     5343     TIP3     H2       HT       0.417000       1.00800           0
     33404 TIP3     5344     TIP3     OH2      OT      -0.834000       15.9994           0
     33405 TIP3     5344     TIP3     H1       HT       0.417000       1.00800           0
     33406 TIP3     5344     TIP3     H2       HT       0.417000       1.00800           0
     33407 TIP3     5345     TIP3     OH2      OT      -0.834000       15.9994           0
     33408 TIP3     5345     TIP3     H1       HT       0.417000       1.00800           0
     33409 TIP3     5345     TIP3     H2       HT       0.417000       1.00800           0
     33410 TIP3     5346     TIP3     OH2      OT      -0.834000       15.9994           0
     33411 TIP3     5346     TIP3     H1       HT       0.417000       1.00800           0
     33412 TIP3     5346     TIP3     H2       HT       0.417000       1.00800           0
     33413 TIP3     5347     TIP3     OH2      OT      -0.834000       15.9994           0
     33414 TIP3     5347     TIP3     H1       HT       0.417000       1.00800           0
     33415 TIP3     5347     TIP3     H2       HT       0.417000       1.00800           0
     33416 TIP3     5348     TIP3     OH2      OT      -0.834000       15.9994           0
     33417 TIP3     5348     TIP3     H1       HT       0.417000       1.00800           0
     33418 TIP3     5348     TIP3     H2       HT       0.417000       1.00800           0
     33419 TIP3     5349     TIP3     OH2      OT      -0.834000       15.9994           0
     33420 TIP3     5349     TIP3     H1       HT       0.417000       1.00800           0
     33421 TIP3     5349     TIP3     H2       HT       0.417000       1.00800           0
     33422 TIP3     5350     TIP3     OH2      OT      -0.834000       15.9994           0
     33423 TIP3     5350     TIP3     H1       HT       0.417000       1.00800           0
     33424 TIP3     5350     TIP3     H2       HT       0.417000       1.00800           0
     33425 TIP3     5351     TIP3     OH2      OT      -0.834000       15.9994           0
     33426 TIP3     5351     TIP3     H1       HT       0.417000       1.00800           0
     33427 TIP3     5351     TIP3     H2       HT       0.417000       1.00800           0
     33428 TIP3     5352     TIP3     OH2      OT      -0.834000       15.9994           0
     33429 TIP3     5352     TIP3     H1       HT       0.417000       1.00800           0
     33430 TIP3     5352     TIP3     H2       HT       0.417000       1.00800           0
     33431 TIP3     5353     TIP3     OH2      OT      -0.834000       15.9994           0
     33432 TIP3     5353     TIP3     H1       HT       0.417000       1.00800           0
     33433 TIP3     5353     TIP3     H2       HT       0.417000       1.00800           0
     33434 TIP3     5354     TIP3     OH2      OT      -0.834000       15.9994           0
     33435 TIP3     5354     TIP3     H1       HT       0.417000       1.00800           0
     33436 TIP3     5354     TIP3     H2       HT       0.417000       1.00800           0
     33437 TIP3     5355     TIP3     OH2      OT      -0.834000       15.9994           0
     33438 TIP3     5355     TIP3     H1       HT       0.417000       1.00800           0
     33439 TIP3     5355     TIP3     H2       HT       0.417000       1.00800           0
     33440 TIP3     5356     TIP3     OH2      OT      -0.834000       15.9994           0
     33441 TIP3     5356     TIP3     H1       HT       0.417000       1.00800           0
     33442 TIP3     5356     TIP3     H2       HT       0.417000       1.00800           0
     33443 TIP3     5357     TIP3     OH2      OT      -0.834000       15.9994           0
     33444 TIP3     5357     TIP3     H1       HT       0.417000       1.00800           0
     33445 TIP3     5357     TIP3     H2       HT       0.417000       1.00800           0
     33446 TIP3     5358     TIP3     OH2      OT      -0.834000       15.9994           0
     33447 TIP3     5358     TIP3     H1       HT       0.417000       1.00800           0
     33448 TIP3     5358     TIP3     H2       HT       0.417000       1.00800           0
     33449 TIP3     5359     TIP3     OH2      OT      -0.834000       15.9994           0
     33450 TIP3     5359     TIP3     H1       HT       0.417000       1.00800           0
     33451 TIP3     5359     TIP3     H2       HT       0.417000       1.00800           0
     33452 TIP3     5360     TIP3     OH2      OT      -0.834000       15.9994           0
     33453 TIP3     5360     TIP3     H1       HT       0.417000       1.00800           0
     33454 TIP3     5360     TIP3     H2       HT       0.417000       1.00800           0
     33455 TIP3     5361     TIP3     OH2      OT      -0.834000       15.9994           0
     33456 TIP3     5361     TIP3     H1       HT       0.417000       1.00800           0
     33457 TIP3     5361     TIP3     H2       HT       0.417000       1.00800           0
     33458 TIP3     5362     TIP3     OH2      OT      -0.834000       15.9994           0
     33459 TIP3     5362     TIP3     H1       HT       0.417000       1.00800           0
     33460 TIP3     5362     TIP3     H2       HT       0.417000       1.00800           0
     33461 TIP3     5363     TIP3     OH2      OT      -0.834000       15.9994           0
     33462 TIP3     5363     TIP3     H1       HT       0.417000       1.00800           0
     33463 TIP3     5363     TIP3     H2       HT       0.417000       1.00800           0
     33464 TIP3     5364     TIP3     OH2      OT      -0.834000       15.9994           0
     33465 TIP3     5364     TIP3     H1       HT       0.417000       1.00800           0
     33466 TIP3     5364     TIP3     H2       HT       0.417000       1.00800           0
     33467 TIP3     5365     TIP3     OH2      OT      -0.834000       15.9994           0
     33468 TIP3     5365     TIP3     H1       HT       0.417000       1.00800           0
     33469 TIP3     5365     TIP3     H2       HT       0.417000       1.00800           0
     33470 TIP3     5366     TIP3     OH2      OT      -0.834000       15.9994           0
     33471 TIP3     5366     TIP3     H1       HT       0.417000       1.00800           0
     33472 TIP3     5366     TIP3     H2       HT       0.417000       1.00800           0
     33473 TIP3     5367     TIP3     OH2      OT      -0.834000       15.9994           0
     33474 TIP3     5367     TIP3     H1       HT       0.417000       1.00800           0
     33475 TIP3     5367     TIP3     H2       HT       0.417000       1.00800           0
     33476 TIP3     5368     TIP3     OH2      OT      -0.834000       15.9994           0
     33477 TIP3     5368     TIP3     H1       HT       0.417000       1.00800           0
     33478 TIP3     5368     TIP3     H2       HT       0.417000       1.00800           0
     33479 TIP3     5369     TIP3     OH2      OT      -0.834000       15.9994           0
     33480 TIP3     5369     TIP3     H1       HT       0.417000       1.00800           0
     33481 TIP3     5369     TIP3     H2       HT       0.417000       1.00800           0
     33482 TIP3     5370     TIP3     OH2      OT      -0.834000       15.9994           0
     33483 TIP3     5370     TIP3     H1       HT       0.417000       1.00800           0
     33484 TIP3     5370     TIP3     H2       HT       0.417000       1.00800           0
     33485 TIP3     5371     TIP3     OH2      OT      -0.834000       15.9994           0
     33486 TIP3     5371     TIP3     H1       HT       0.417000       1.00800           0
     33487 TIP3     5371     TIP3     H2       HT       0.417000       1.00800           0
     33488 TIP3     5372     TIP3     OH2      OT      -0.834000       15.9994           0
     33489 TIP3     5372     TIP3     H1       HT       0.417000       1.00800           0
     33490 TIP3     5372     TIP3     H2       HT       0.417000       1.00800           0
     33491 TIP3     5373     TIP3     OH2      OT      -0.834000       15.9994           0
     33492 TIP3     5373     TIP3     H1       HT       0.417000       1.00800           0
     33493 TIP3     5373     TIP3     H2       HT       0.417000       1.00800           0
     33494 TIP3     5374     TIP3     OH2      OT      -0.834000       15.9994           0
     33495 TIP3     5374     TIP3     H1       HT       0.417000       1.00800           0
     33496 TIP3     5374     TIP3     H2       HT       0.417000       1.00800           0
     33497 TIP3     5375     TIP3     OH2      OT      -0.834000       15.9994           0
     33498 TIP3     5375     TIP3     H1       HT       0.417000       1.00800           0
     33499 TIP3     5375     TIP3     H2       HT       0.417000       1.00800           0
     33500 TIP3     5376     TIP3     OH2      OT      -0.834000       15.9994           0
     33501 TIP3     5376     TIP3     H1       HT       0.417000       1.00800           0
     33502 TIP3     5376     TIP3     H2       HT       0.417000       1.00800           0
     33503 TIP3     5377     TIP3     OH2      OT      -0.834000       15.9994           0
     33504 TIP3     5377     TIP3     H1       HT       0.417000       1.00800           0
     33505 TIP3     5377     TIP3     H2       HT       0.417000       1.00800           0
     33506 TIP3     5378     TIP3     OH2      OT      -0.834000       15.9994           0
     33507 TIP3     5378     TIP3     H1       HT       0.417000       1.00800           0
     33508 TIP3     5378     TIP3     H2       HT       0.417000       1.00800           0
     33509 TIP3     5379     TIP3     OH2      OT      -0.834000       15.9994           0
     33510 TIP3     5379     TIP3     H1       HT       0.417000       1.00800           0
     33511 TIP3     5379     TIP3     H2       HT       0.417000       1.00800           0
     33512 TIP3     5380     TIP3     OH2      OT      -0.834000       15.9994           0
     33513 TIP3     5380     TIP3     H1       HT       0.417000       1.00800           0
     33514 TIP3     5380     TIP3     H2       HT       0.417000       1.00800           0
     33515 TIP3     5381     TIP3     OH2      OT      -0.834000       15.9994           0
     33516 TIP3     5381     TIP3     H1       HT       0.417000       1.00800           0
     33517 TIP3     5381     TIP3     H2       HT       0.417000       1.00800           0
     33518 TIP3     5382     TIP3     OH2      OT      -0.834000       15.9994           0
     33519 TIP3     5382     TIP3     H1       HT       0.417000       1.00800           0
     33520 TIP3     5382     TIP3     H2       HT       0.417000       1.00800           0
     33521 TIP3     5383     TIP3     OH2      OT      -0.834000       15.9994           0
     33522 TIP3     5383     TIP3     H1       HT       0.417000       1.00800           0
     33523 TIP3     5383     TIP3     H2       HT       0.417000       1.00800           0
     33524 TIP3     5384     TIP3     OH2      OT      -0.834000       15.9994           0
     33525 TIP3     5384     TIP3     H1       HT       0.417000       1.00800           0
     33526 TIP3     5384     TIP3     H2       HT       0.417000       1.00800           0
     33527 TIP3     5385     TIP3     OH2      OT      -0.834000       15.9994           0
     33528 TIP3     5385     TIP3     H1       HT       0.417000       1.00800           0
     33529 TIP3     5385     TIP3     H2       HT       0.417000       1.00800           0
     33530 TIP3     5386     TIP3     OH2      OT      -0.834000       15.9994           0
     33531 TIP3     5386     TIP3     H1       HT       0.417000       1.00800           0
     33532 TIP3     5386     TIP3     H2       HT       0.417000       1.00800           0
     33533 TIP3     5387     TIP3     OH2      OT      -0.834000       15.9994           0
     33534 TIP3     5387     TIP3     H1       HT       0.417000       1.00800           0
     33535 TIP3     5387     TIP3     H2       HT       0.417000       1.00800           0
     33536 TIP3     5388     TIP3     OH2      OT      -0.834000       15.9994           0
     33537 TIP3     5388     TIP3     H1       HT       0.417000       1.00800           0
     33538 TIP3     5388     TIP3     H2       HT       0.417000       1.00800           0
     33539 TIP3     5389     TIP3     OH2      OT      -0.834000       15.9994           0
     33540 TIP3     5389     TIP3     H1       HT       0.417000       1.00800           0
     33541 TIP3     5389     TIP3     H2       HT       0.417000       1.00800           0
     33542 TIP3     5390     TIP3     OH2      OT      -0.834000       15.9994           0
     33543 TIP3     5390     TIP3     H1       HT       0.417000       1.00800           0
     33544 TIP3     5390     TIP3     H2       HT       0.417000       1.00800           0
     33545 TIP3     5391     TIP3     OH2      OT      -0.834000       15.9994           0
     33546 TIP3     5391     TIP3     H1       HT       0.417000       1.00800           0
     33547 TIP3     5391     TIP3     H2       HT       0.417000       1.00800           0
     33548 TIP3     5392     TIP3     OH2      OT      -0.834000       15.9994           0
     33549 TIP3     5392     TIP3     H1       HT       0.417000       1.00800           0
     33550 TIP3     5392     TIP3     H2       HT       0.417000       1.00800           0
     33551 TIP3     5393     TIP3     OH2      OT      -0.834000       15.9994           0
     33552 TIP3     5393     TIP3     H1       HT       0.417000       1.00800           0
     33553 TIP3     5393     TIP3     H2       HT       0.417000       1.00800           0
     33554 TIP3     5394     TIP3     OH2      OT      -0.834000       15.9994           0
     33555 TIP3     5394     TIP3     H1       HT       0.417000       1.00800           0
     33556 TIP3     5394     TIP3     H2       HT       0.417000       1.00800           0
     33557 TIP3     5395     TIP3     OH2      OT      -0.834000       15.9994           0
     33558 TIP3     5395     TIP3     H1       HT       0.417000       1.00800           0
     33559 TIP3     5395     TIP3     H2       HT       0.417000       1.00800           0
     33560 TIP3     5396     TIP3     OH2      OT      -0.834000       15.9994           0
     33561 TIP3     5396     TIP3     H1       HT       0.417000       1.00800           0
     33562 TIP3     5396     TIP3     H2       HT       0.417000       1.00800           0
     33563 TIP3     5397     TIP3     OH2      OT      -0.834000       15.9994           0
     33564 TIP3     5397     TIP3     H1       HT       0.417000       1.00800           0
     33565 TIP3     5397     TIP3     H2       HT       0.417000       1.00800           0
     33566 TIP3     5398     TIP3     OH2      OT      -0.834000       15.9994           0
     33567 TIP3     5398     TIP3     H1       HT       0.417000       1.00800           0
     33568 TIP3     5398     TIP3     H2       HT       0.417000       1.00800           0
     33569 TIP3     5399     TIP3     OH2      OT      -0.834000       15.9994           0
     33570 TIP3     5399     TIP3     H1       HT       0.417000       1.00800           0
     33571 TIP3     5399     TIP3     H2       HT       0.417000       1.00800           0
     33572 TIP3     5400     TIP3     OH2      OT      -0.834000       15.9994           0
     33573 TIP3     5400     TIP3     H1       HT       0.417000       1.00800           0
     33574 TIP3     5400     TIP3     H2       HT       0.417000       1.00800           0
     33575 TIP3     5401     TIP3     OH2      OT      -0.834000       15.9994           0
     33576 TIP3     5401     TIP3     H1       HT       0.417000       1.00800           0
     33577 TIP3     5401     TIP3     H2       HT       0.417000       1.00800           0
     33578 TIP3     5402     TIP3     OH2      OT      -0.834000       15.9994           0
     33579 TIP3     5402     TIP3     H1       HT       0.417000       1.00800           0
     33580 TIP3     5402     TIP3     H2       HT       0.417000       1.00800           0
     33581 TIP3     5403     TIP3     OH2      OT      -0.834000       15.9994           0
     33582 TIP3     5403     TIP3     H1       HT       0.417000       1.00800           0
     33583 TIP3     5403     TIP3     H2       HT       0.417000       1.00800           0
     33584 TIP3     5404     TIP3     OH2      OT      -0.834000       15.9994           0
     33585 TIP3     5404     TIP3     H1       HT       0.417000       1.00800           0
     33586 TIP3     5404     TIP3     H2       HT       0.417000       1.00800           0
     33587 TIP3     5405     TIP3     OH2      OT      -0.834000       15.9994           0
     33588 TIP3     5405     TIP3     H1       HT       0.417000       1.00800           0
     33589 TIP3     5405     TIP3     H2       HT       0.417000       1.00800           0
     33590 TIP3     5406     TIP3     OH2      OT      -0.834000       15.9994           0
     33591 TIP3     5406     TIP3     H1       HT       0.417000       1.00800           0
     33592 TIP3     5406     TIP3     H2       HT       0.417000       1.00800           0
     33593 TIP3     5407     TIP3     OH2      OT      -0.834000       15.9994           0
     33594 TIP3     5407     TIP3     H1       HT       0.417000       1.00800           0
     33595 TIP3     5407     TIP3     H2       HT       0.417000       1.00800           0
     33596 TIP3     5408     TIP3     OH2      OT      -0.834000       15.9994           0
     33597 TIP3     5408     TIP3     H1       HT       0.417000       1.00800           0
     33598 TIP3     5408     TIP3     H2       HT       0.417000       1.00800           0
     33599 TIP3     5409     TIP3     OH2      OT      -0.834000       15.9994           0
     33600 TIP3     5409     TIP3     H1       HT       0.417000       1.00800           0
     33601 TIP3     5409     TIP3     H2       HT       0.417000       1.00800           0
     33602 TIP3     5410     TIP3     OH2      OT      -0.834000       15.9994           0
     33603 TIP3     5410     TIP3     H1       HT       0.417000       1.00800           0
     33604 TIP3     5410     TIP3     H2       HT       0.417000       1.00800           0
     33605 TIP3     5411     TIP3     OH2      OT      -0.834000       15.9994           0
     33606 TIP3     5411     TIP3     H1       HT       0.417000       1.00800           0
     33607 TIP3     5411     TIP3     H2       HT       0.417000       1.00800           0
     33608 TIP3     5412     TIP3     OH2      OT      -0.834000       15.9994           0
     33609 TIP3     5412     TIP3     H1       HT       0.417000       1.00800           0
     33610 TIP3     5412     TIP3     H2       HT       0.417000       1.00800           0
     33611 TIP3     5413     TIP3     OH2      OT      -0.834000       15.9994           0
     33612 TIP3     5413     TIP3     H1       HT       0.417000       1.00800           0
     33613 TIP3     5413     TIP3     H2       HT       0.417000       1.00800           0
     33614 TIP3     5414     TIP3     OH2      OT      -0.834000       15.9994           0
     33615 TIP3     5414     TIP3     H1       HT       0.417000       1.00800           0
     33616 TIP3     5414     TIP3     H2       HT       0.417000       1.00800           0
     33617 TIP3     5415     TIP3     OH2      OT      -0.834000       15.9994           0
     33618 TIP3     5415     TIP3     H1       HT       0.417000       1.00800           0
     33619 TIP3     5415     TIP3     H2       HT       0.417000       1.00800           0
     33620 TIP3     5416     TIP3     OH2      OT      -0.834000       15.9994           0
     33621 TIP3     5416     TIP3     H1       HT       0.417000       1.00800           0
     33622 TIP3     5416     TIP3     H2       HT       0.417000       1.00800           0
     33623 TIP3     5417     TIP3     OH2      OT      -0.834000       15.9994           0
     33624 TIP3     5417     TIP3     H1       HT       0.417000       1.00800           0
     33625 TIP3     5417     TIP3     H2       HT       0.417000       1.00800           0
     33626 TIP3     5418     TIP3     OH2      OT      -0.834000       15.9994           0
     33627 TIP3     5418     TIP3     H1       HT       0.417000       1.00800           0
     33628 TIP3     5418     TIP3     H2       HT       0.417000       1.00800           0
     33629 TIP3     5419     TIP3     OH2      OT      -0.834000       15.9994           0
     33630 TIP3     5419     TIP3     H1       HT       0.417000       1.00800           0
     33631 TIP3     5419     TIP3     H2       HT       0.417000       1.00800           0
     33632 TIP3     5420     TIP3     OH2      OT      -0.834000       15.9994           0
     33633 TIP3     5420     TIP3     H1       HT       0.417000       1.00800           0
     33634 TIP3     5420     TIP3     H2       HT       0.417000       1.00800           0
     33635 TIP3     5421     TIP3     OH2      OT      -0.834000       15.9994           0
     33636 TIP3     5421     TIP3     H1       HT       0.417000       1.00800           0
     33637 TIP3     5421     TIP3     H2       HT       0.417000       1.00800           0
     33638 TIP3     5422     TIP3     OH2      OT      -0.834000       15.9994           0
     33639 TIP3     5422     TIP3     H1       HT       0.417000       1.00800           0
     33640 TIP3     5422     TIP3     H2       HT       0.417000       1.00800           0
     33641 TIP3     5423     TIP3     OH2      OT      -0.834000       15.9994           0
     33642 TIP3     5423     TIP3     H1       HT       0.417000       1.00800           0
     33643 TIP3     5423     TIP3     H2       HT       0.417000       1.00800           0
     33644 TIP3     5424     TIP3     OH2      OT      -0.834000       15.9994           0
     33645 TIP3     5424     TIP3     H1       HT       0.417000       1.00800           0
     33646 TIP3     5424     TIP3     H2       HT       0.417000       1.00800           0
     33647 TIP3     5425     TIP3     OH2      OT      -0.834000       15.9994           0
     33648 TIP3     5425     TIP3     H1       HT       0.417000       1.00800           0
     33649 TIP3     5425     TIP3     H2       HT       0.417000       1.00800           0
     33650 TIP3     5426     TIP3     OH2      OT      -0.834000       15.9994           0
     33651 TIP3     5426     TIP3     H1       HT       0.417000       1.00800           0
     33652 TIP3     5426     TIP3     H2       HT       0.417000       1.00800           0
     33653 TIP3     5427     TIP3     OH2      OT      -0.834000       15.9994           0
     33654 TIP3     5427     TIP3     H1       HT       0.417000       1.00800           0
     33655 TIP3     5427     TIP3     H2       HT       0.417000       1.00800           0
     33656 TIP3     5428     TIP3     OH2      OT      -0.834000       15.9994           0
     33657 TIP3     5428     TIP3     H1       HT       0.417000       1.00800           0
     33658 TIP3     5428     TIP3     H2       HT       0.417000       1.00800           0
     33659 TIP3     5429     TIP3     OH2      OT      -0.834000       15.9994           0
     33660 TIP3     5429     TIP3     H1       HT       0.417000       1.00800           0
     33661 TIP3     5429     TIP3     H2       HT       0.417000       1.00800           0
     33662 TIP3     5430     TIP3     OH2      OT      -0.834000       15.9994           0
     33663 TIP3     5430     TIP3     H1       HT       0.417000       1.00800           0
     33664 TIP3     5430     TIP3     H2       HT       0.417000       1.00800           0
     33665 TIP3     5431     TIP3     OH2      OT      -0.834000       15.9994           0
     33666 TIP3     5431     TIP3     H1       HT       0.417000       1.00800           0
     33667 TIP3     5431     TIP3     H2       HT       0.417000       1.00800           0
     33668 TIP3     5432     TIP3     OH2      OT      -0.834000       15.9994           0
     33669 TIP3     5432     TIP3     H1       HT       0.417000       1.00800           0
     33670 TIP3     5432     TIP3     H2       HT       0.417000       1.00800           0
     33671 TIP3     5433     TIP3     OH2      OT      -0.834000       15.9994           0
     33672 TIP3     5433     TIP3     H1       HT       0.417000       1.00800           0
     33673 TIP3     5433     TIP3     H2       HT       0.417000       1.00800           0
     33674 TIP3     5434     TIP3     OH2      OT      -0.834000       15.9994           0
     33675 TIP3     5434     TIP3     H1       HT       0.417000       1.00800           0
     33676 TIP3     5434     TIP3     H2       HT       0.417000       1.00800           0
     33677 TIP3     5435     TIP3     OH2      OT      -0.834000       15.9994           0
     33678 TIP3     5435     TIP3     H1       HT       0.417000       1.00800           0
     33679 TIP3     5435     TIP3     H2       HT       0.417000       1.00800           0
     33680 TIP3     5436     TIP3     OH2      OT      -0.834000       15.9994           0
     33681 TIP3     5436     TIP3     H1       HT       0.417000       1.00800           0
     33682 TIP3     5436     TIP3     H2       HT       0.417000       1.00800           0
     33683 TIP3     5437     TIP3     OH2      OT      -0.834000       15.9994           0
     33684 TIP3     5437     TIP3     H1       HT       0.417000       1.00800           0
     33685 TIP3     5437     TIP3     H2       HT       0.417000       1.00800           0
     33686 TIP3     5438     TIP3     OH2      OT      -0.834000       15.9994           0
     33687 TIP3     5438     TIP3     H1       HT       0.417000       1.00800           0
     33688 TIP3     5438     TIP3     H2       HT       0.417000       1.00800           0
     33689 TIP3     5439     TIP3     OH2      OT      -0.834000       15.9994           0
     33690 TIP3     5439     TIP3     H1       HT       0.417000       1.00800           0
     33691 TIP3     5439     TIP3     H2       HT       0.417000       1.00800           0
     33692 TIP3     5440     TIP3     OH2      OT      -0.834000       15.9994           0
     33693 TIP3     5440     TIP3     H1       HT       0.417000       1.00800           0
     33694 TIP3     5440     TIP3     H2       HT       0.417000       1.00800           0
     33695 TIP3     5441     TIP3     OH2      OT      -0.834000       15.9994           0
     33696 TIP3     5441     TIP3     H1       HT       0.417000       1.00800           0
     33697 TIP3     5441     TIP3     H2       HT       0.417000       1.00800           0
     33698 TIP3     5442     TIP3     OH2      OT      -0.834000       15.9994           0
     33699 TIP3     5442     TIP3     H1       HT       0.417000       1.00800           0
     33700 TIP3     5442     TIP3     H2       HT       0.417000       1.00800           0
     33701 TIP3     5443     TIP3     OH2      OT      -0.834000       15.9994           0
     33702 TIP3     5443     TIP3     H1       HT       0.417000       1.00800           0
     33703 TIP3     5443     TIP3     H2       HT       0.417000       1.00800           0
     33704 TIP3     5444     TIP3     OH2      OT      -0.834000       15.9994           0
     33705 TIP3     5444     TIP3     H1       HT       0.417000       1.00800           0
     33706 TIP3     5444     TIP3     H2       HT       0.417000       1.00800           0
     33707 TIP3     5445     TIP3     OH2      OT      -0.834000       15.9994           0
     33708 TIP3     5445     TIP3     H1       HT       0.417000       1.00800           0
     33709 TIP3     5445     TIP3     H2       HT       0.417000       1.00800           0
     33710 TIP3     5446     TIP3     OH2      OT      -0.834000       15.9994           0
     33711 TIP3     5446     TIP3     H1       HT       0.417000       1.00800           0
     33712 TIP3     5446     TIP3     H2       HT       0.417000       1.00800           0
     33713 TIP3     5447     TIP3     OH2      OT      -0.834000       15.9994           0
     33714 TIP3     5447     TIP3     H1       HT       0.417000       1.00800           0
     33715 TIP3     5447     TIP3     H2       HT       0.417000       1.00800           0
     33716 TIP3     5448     TIP3     OH2      OT      -0.834000       15.9994           0
     33717 TIP3     5448     TIP3     H1       HT       0.417000       1.00800           0
     33718 TIP3     5448     TIP3     H2       HT       0.417000       1.00800           0
     33719 TIP3     5449     TIP3     OH2      OT      -0.834000       15.9994           0
     33720 TIP3     5449     TIP3     H1       HT       0.417000       1.00800           0
     33721 TIP3     5449     TIP3     H2       HT       0.417000       1.00800           0
     33722 TIP3     5450     TIP3     OH2      OT      -0.834000       15.9994           0
     33723 TIP3     5450     TIP3     H1       HT       0.417000       1.00800           0
     33724 TIP3     5450     TIP3     H2       HT       0.417000       1.00800           0
     33725 TIP3     5451     TIP3     OH2      OT      -0.834000       15.9994           0
     33726 TIP3     5451     TIP3     H1       HT       0.417000       1.00800           0
     33727 TIP3     5451     TIP3     H2       HT       0.417000       1.00800           0
     33728 TIP3     5452     TIP3     OH2      OT      -0.834000       15.9994           0
     33729 TIP3     5452     TIP3     H1       HT       0.417000       1.00800           0
     33730 TIP3     5452     TIP3     H2       HT       0.417000       1.00800           0
     33731 TIP3     5453     TIP3     OH2      OT      -0.834000       15.9994           0
     33732 TIP3     5453     TIP3     H1       HT       0.417000       1.00800           0
     33733 TIP3     5453     TIP3     H2       HT       0.417000       1.00800           0
     33734 TIP3     5454     TIP3     OH2      OT      -0.834000       15.9994           0
     33735 TIP3     5454     TIP3     H1       HT       0.417000       1.00800           0
     33736 TIP3     5454     TIP3     H2       HT       0.417000       1.00800           0
     33737 TIP3     5455     TIP3     OH2      OT      -0.834000       15.9994           0
     33738 TIP3     5455     TIP3     H1       HT       0.417000       1.00800           0
     33739 TIP3     5455     TIP3     H2       HT       0.417000       1.00800           0
     33740 TIP3     5456     TIP3     OH2      OT      -0.834000       15.9994           0
     33741 TIP3     5456     TIP3     H1       HT       0.417000       1.00800           0
     33742 TIP3     5456     TIP3     H2       HT       0.417000       1.00800           0
     33743 TIP3     5457     TIP3     OH2      OT      -0.834000       15.9994           0
     33744 TIP3     5457     TIP3     H1       HT       0.417000       1.00800           0
     33745 TIP3     5457     TIP3     H2       HT       0.417000       1.00800           0
     33746 TIP3     5458     TIP3     OH2      OT      -0.834000       15.9994           0
     33747 TIP3     5458     TIP3     H1       HT       0.417000       1.00800           0
     33748 TIP3     5458     TIP3     H2       HT       0.417000       1.00800           0
     33749 TIP3     5459     TIP3     OH2      OT      -0.834000       15.9994           0
     33750 TIP3     5459     TIP3     H1       HT       0.417000       1.00800           0
     33751 TIP3     5459     TIP3     H2       HT       0.417000       1.00800           0
     33752 TIP3     5460     TIP3     OH2      OT      -0.834000       15.9994           0
     33753 TIP3     5460     TIP3     H1       HT       0.417000       1.00800           0
     33754 TIP3     5460     TIP3     H2       HT       0.417000       1.00800           0
     33755 TIP3     5461     TIP3     OH2      OT      -0.834000       15.9994           0
     33756 TIP3     5461     TIP3     H1       HT       0.417000       1.00800           0
     33757 TIP3     5461     TIP3     H2       HT       0.417000       1.00800           0
     33758 TIP3     5462     TIP3     OH2      OT      -0.834000       15.9994           0
     33759 TIP3     5462     TIP3     H1       HT       0.417000       1.00800           0
     33760 TIP3     5462     TIP3     H2       HT       0.417000       1.00800           0
     33761 TIP3     5463     TIP3     OH2      OT      -0.834000       15.9994           0
     33762 TIP3     5463     TIP3     H1       HT       0.417000       1.00800           0
     33763 TIP3     5463     TIP3     H2       HT       0.417000       1.00800           0
     33764 TIP3     5464     TIP3     OH2      OT      -0.834000       15.9994           0
     33765 TIP3     5464     TIP3     H1       HT       0.417000       1.00800           0
     33766 TIP3     5464     TIP3     H2       HT       0.417000       1.00800           0
     33767 TIP3     5465     TIP3     OH2      OT      -0.834000       15.9994           0
     33768 TIP3     5465     TIP3     H1       HT       0.417000       1.00800           0
     33769 TIP3     5465     TIP3     H2       HT       0.417000       1.00800           0
     33770 TIP3     5466     TIP3     OH2      OT      -0.834000       15.9994           0
     33771 TIP3     5466     TIP3     H1       HT       0.417000       1.00800           0
     33772 TIP3     5466     TIP3     H2       HT       0.417000       1.00800           0
     33773 TIP3     5467     TIP3     OH2      OT      -0.834000       15.9994           0
     33774 TIP3     5467     TIP3     H1       HT       0.417000       1.00800           0
     33775 TIP3     5467     TIP3     H2       HT       0.417000       1.00800           0
     33776 TIP3     5468     TIP3     OH2      OT      -0.834000       15.9994           0
     33777 TIP3     5468     TIP3     H1       HT       0.417000       1.00800           0
     33778 TIP3     5468     TIP3     H2       HT       0.417000       1.00800           0
     33779 TIP3     5469     TIP3     OH2      OT      -0.834000       15.9994           0
     33780 TIP3     5469     TIP3     H1       HT       0.417000       1.00800           0
     33781 TIP3     5469     TIP3     H2       HT       0.417000       1.00800           0
     33782 TIP3     5470     TIP3     OH2      OT      -0.834000       15.9994           0
     33783 TIP3     5470     TIP3     H1       HT       0.417000       1.00800           0
     33784 TIP3     5470     TIP3     H2       HT       0.417000       1.00800           0
     33785 TIP3     5471     TIP3     OH2      OT      -0.834000       15.9994           0
     33786 TIP3     5471     TIP3     H1       HT       0.417000       1.00800           0
     33787 TIP3     5471     TIP3     H2       HT       0.417000       1.00800           0
     33788 TIP3     5472     TIP3     OH2      OT      -0.834000       15.9994           0
     33789 TIP3     5472     TIP3     H1       HT       0.417000       1.00800           0
     33790 TIP3     5472     TIP3     H2       HT       0.417000       1.00800           0
     33791 TIP3     5473     TIP3     OH2      OT      -0.834000       15.9994           0
     33792 TIP3     5473     TIP3     H1       HT       0.417000       1.00800           0
     33793 TIP3     5473     TIP3     H2       HT       0.417000       1.00800           0
     33794 TIP3     5474     TIP3     OH2      OT      -0.834000       15.9994           0
     33795 TIP3     5474     TIP3     H1       HT       0.417000       1.00800           0
     33796 TIP3     5474     TIP3     H2       HT       0.417000       1.00800           0
     33797 TIP3     5475     TIP3     OH2      OT      -0.834000       15.9994           0
     33798 TIP3     5475     TIP3     H1       HT       0.417000       1.00800           0
     33799 TIP3     5475     TIP3     H2       HT       0.417000       1.00800           0
     33800 TIP3     5476     TIP3     OH2      OT      -0.834000       15.9994           0
     33801 TIP3     5476     TIP3     H1       HT       0.417000       1.00800           0
     33802 TIP3     5476     TIP3     H2       HT       0.417000       1.00800           0
     33803 TIP3     5477     TIP3     OH2      OT      -0.834000       15.9994           0
     33804 TIP3     5477     TIP3     H1       HT       0.417000       1.00800           0
     33805 TIP3     5477     TIP3     H2       HT       0.417000       1.00800           0
     33806 TIP3     5478     TIP3     OH2      OT      -0.834000       15.9994           0
     33807 TIP3     5478     TIP3     H1       HT       0.417000       1.00800           0
     33808 TIP3     5478     TIP3     H2       HT       0.417000       1.00800           0
     33809 TIP3     5479     TIP3     OH2      OT      -0.834000       15.9994           0
     33810 TIP3     5479     TIP3     H1       HT       0.417000       1.00800           0
     33811 TIP3     5479     TIP3     H2       HT       0.417000       1.00800           0
     33812 TIP3     5480     TIP3     OH2      OT      -0.834000       15.9994           0
     33813 TIP3     5480     TIP3     H1       HT       0.417000       1.00800           0
     33814 TIP3     5480     TIP3     H2       HT       0.417000       1.00800           0
     33815 TIP3     5481     TIP3     OH2      OT      -0.834000       15.9994           0
     33816 TIP3     5481     TIP3     H1       HT       0.417000       1.00800           0
     33817 TIP3     5481     TIP3     H2       HT       0.417000       1.00800           0
     33818 TIP3     5482     TIP3     OH2      OT      -0.834000       15.9994           0
     33819 TIP3     5482     TIP3     H1       HT       0.417000       1.00800           0
     33820 TIP3     5482     TIP3     H2       HT       0.417000       1.00800           0
     33821 TIP3     5483     TIP3     OH2      OT      -0.834000       15.9994           0
     33822 TIP3     5483     TIP3     H1       HT       0.417000       1.00800           0
     33823 TIP3     5483     TIP3     H2       HT       0.417000       1.00800           0
     33824 TIP3     5484     TIP3     OH2      OT      -0.834000       15.9994           0
     33825 TIP3     5484     TIP3     H1       HT       0.417000       1.00800           0
     33826 TIP3     5484     TIP3     H2       HT       0.417000       1.00800           0
     33827 TIP3     5485     TIP3     OH2      OT      -0.834000       15.9994           0
     33828 TIP3     5485     TIP3     H1       HT       0.417000       1.00800           0
     33829 TIP3     5485     TIP3     H2       HT       0.417000       1.00800           0
     33830 TIP3     5486     TIP3     OH2      OT      -0.834000       15.9994           0
     33831 TIP3     5486     TIP3     H1       HT       0.417000       1.00800           0
     33832 TIP3     5486     TIP3     H2       HT       0.417000       1.00800           0
     33833 TIP3     5487     TIP3     OH2      OT      -0.834000       15.9994           0
     33834 TIP3     5487     TIP3     H1       HT       0.417000       1.00800           0
     33835 TIP3     5487     TIP3     H2       HT       0.417000       1.00800           0
     33836 TIP3     5488     TIP3     OH2      OT      -0.834000       15.9994           0
     33837 TIP3     5488     TIP3     H1       HT       0.417000       1.00800           0
     33838 TIP3     5488     TIP3     H2       HT       0.417000       1.00800           0
     33839 TIP3     5489     TIP3     OH2      OT      -0.834000       15.9994           0
     33840 TIP3     5489     TIP3     H1       HT       0.417000       1.00800           0
     33841 TIP3     5489     TIP3     H2       HT       0.417000       1.00800           0
     33842 TIP3     5490     TIP3     OH2      OT      -0.834000       15.9994           0
     33843 TIP3     5490     TIP3     H1       HT       0.417000       1.00800           0
     33844 TIP3     5490     TIP3     H2       HT       0.417000       1.00800           0
     33845 TIP3     5491     TIP3     OH2      OT      -0.834000       15.9994           0
     33846 TIP3     5491     TIP3     H1       HT       0.417000       1.00800           0
     33847 TIP3     5491     TIP3     H2       HT       0.417000       1.00800           0
     33848 TIP3     5492     TIP3     OH2      OT      -0.834000       15.9994           0
     33849 TIP3     5492     TIP3     H1       HT       0.417000       1.00800           0
     33850 TIP3     5492     TIP3     H2       HT       0.417000       1.00800           0
     33851 TIP3     5493     TIP3     OH2      OT      -0.834000       15.9994           0
     33852 TIP3     5493     TIP3     H1       HT       0.417000       1.00800           0
     33853 TIP3     5493     TIP3     H2       HT       0.417000       1.00800           0
     33854 TIP3     5494     TIP3     OH2      OT      -0.834000       15.9994           0
     33855 TIP3     5494     TIP3     H1       HT       0.417000       1.00800           0
     33856 TIP3     5494     TIP3     H2       HT       0.417000       1.00800           0
     33857 TIP3     5495     TIP3     OH2      OT      -0.834000       15.9994           0
     33858 TIP3     5495     TIP3     H1       HT       0.417000       1.00800           0
     33859 TIP3     5495     TIP3     H2       HT       0.417000       1.00800           0
     33860 TIP3     5496     TIP3     OH2      OT      -0.834000       15.9994           0
     33861 TIP3     5496     TIP3     H1       HT       0.417000       1.00800           0
     33862 TIP3     5496     TIP3     H2       HT       0.417000       1.00800           0
     33863 TIP3     5497     TIP3     OH2      OT      -0.834000       15.9994           0
     33864 TIP3     5497     TIP3     H1       HT       0.417000       1.00800           0
     33865 TIP3     5497     TIP3     H2       HT       0.417000       1.00800           0
     33866 TIP3     5498     TIP3     OH2      OT      -0.834000       15.9994           0
     33867 TIP3     5498     TIP3     H1       HT       0.417000       1.00800           0
     33868 TIP3     5498     TIP3     H2       HT       0.417000       1.00800           0
     33869 TIP3     5499     TIP3     OH2      OT      -0.834000       15.9994           0
     33870 TIP3     5499     TIP3     H1       HT       0.417000       1.00800           0
     33871 TIP3     5499     TIP3     H2       HT       0.417000       1.00800           0
     33872 TIP3     5500     TIP3     OH2      OT      -0.834000       15.9994           0
     33873 TIP3     5500     TIP3     H1       HT       0.417000       1.00800           0
     33874 TIP3     5500     TIP3     H2       HT       0.417000       1.00800           0
     33875 TIP3     5501     TIP3     OH2      OT      -0.834000       15.9994           0
     33876 TIP3     5501     TIP3     H1       HT       0.417000       1.00800           0
     33877 TIP3     5501     TIP3     H2       HT       0.417000       1.00800           0
     33878 TIP3     5502     TIP3     OH2      OT      -0.834000       15.9994           0
     33879 TIP3     5502     TIP3     H1       HT       0.417000       1.00800           0
     33880 TIP3     5502     TIP3     H2       HT       0.417000       1.00800           0
     33881 TIP3     5503     TIP3     OH2      OT      -0.834000       15.9994           0
     33882 TIP3     5503     TIP3     H1       HT       0.417000       1.00800           0
     33883 TIP3     5503     TIP3     H2       HT       0.417000       1.00800           0
     33884 TIP3     5504     TIP3     OH2      OT      -0.834000       15.9994           0
     33885 TIP3     5504     TIP3     H1       HT       0.417000       1.00800           0
     33886 TIP3     5504     TIP3     H2       HT       0.417000       1.00800           0
     33887 TIP3     5505     TIP3     OH2      OT      -0.834000       15.9994           0
     33888 TIP3     5505     TIP3     H1       HT       0.417000       1.00800           0
     33889 TIP3     5505     TIP3     H2       HT       0.417000       1.00800           0
     33890 TIP3     5506     TIP3     OH2      OT      -0.834000       15.9994           0
     33891 TIP3     5506     TIP3     H1       HT       0.417000       1.00800           0
     33892 TIP3     5506     TIP3     H2       HT       0.417000       1.00800           0
     33893 TIP3     5507     TIP3     OH2      OT      -0.834000       15.9994           0
     33894 TIP3     5507     TIP3     H1       HT       0.417000       1.00800           0
     33895 TIP3     5507     TIP3     H2       HT       0.417000       1.00800           0
     33896 TIP3     5508     TIP3     OH2      OT      -0.834000       15.9994           0
     33897 TIP3     5508     TIP3     H1       HT       0.417000       1.00800           0
     33898 TIP3     5508     TIP3     H2       HT       0.417000       1.00800           0
     33899 TIP3     5509     TIP3     OH2      OT      -0.834000       15.9994           0
     33900 TIP3     5509     TIP3     H1       HT       0.417000       1.00800           0
     33901 TIP3     5509     TIP3     H2       HT       0.417000       1.00800           0
     33902 TIP3     5510     TIP3     OH2      OT      -0.834000       15.9994           0
     33903 TIP3     5510     TIP3     H1       HT       0.417000       1.00800           0
     33904 TIP3     5510     TIP3     H2       HT       0.417000       1.00800           0
     33905 TIP3     5511     TIP3     OH2      OT      -0.834000       15.9994           0
     33906 TIP3     5511     TIP3     H1       HT       0.417000       1.00800           0
     33907 TIP3     5511     TIP3     H2       HT       0.417000       1.00800           0
     33908 TIP3     5512     TIP3     OH2      OT      -0.834000       15.9994           0
     33909 TIP3     5512     TIP3     H1       HT       0.417000       1.00800           0
     33910 TIP3     5512     TIP3     H2       HT       0.417000       1.00800           0
     33911 TIP3     5513     TIP3     OH2      OT      -0.834000       15.9994           0
     33912 TIP3     5513     TIP3     H1       HT       0.417000       1.00800           0
     33913 TIP3     5513     TIP3     H2       HT       0.417000       1.00800           0
     33914 TIP3     5514     TIP3     OH2      OT      -0.834000       15.9994           0
     33915 TIP3     5514     TIP3     H1       HT       0.417000       1.00800           0
     33916 TIP3     5514     TIP3     H2       HT       0.417000       1.00800           0
     33917 TIP3     5515     TIP3     OH2      OT      -0.834000       15.9994           0
     33918 TIP3     5515     TIP3     H1       HT       0.417000       1.00800           0
     33919 TIP3     5515     TIP3     H2       HT       0.417000       1.00800           0
     33920 TIP3     5516     TIP3     OH2      OT      -0.834000       15.9994           0
     33921 TIP3     5516     TIP3     H1       HT       0.417000       1.00800           0
     33922 TIP3     5516     TIP3     H2       HT       0.417000       1.00800           0
     33923 TIP3     5517     TIP3     OH2      OT      -0.834000       15.9994           0
     33924 TIP3     5517     TIP3     H1       HT       0.417000       1.00800           0
     33925 TIP3     5517     TIP3     H2       HT       0.417000       1.00800           0
     33926 TIP3     5518     TIP3     OH2      OT      -0.834000       15.9994           0
     33927 TIP3     5518     TIP3     H1       HT       0.417000       1.00800           0
     33928 TIP3     5518     TIP3     H2       HT       0.417000       1.00800           0
     33929 TIP3     5519     TIP3     OH2      OT      -0.834000       15.9994           0
     33930 TIP3     5519     TIP3     H1       HT       0.417000       1.00800           0
     33931 TIP3     5519     TIP3     H2       HT       0.417000       1.00800           0
     33932 TIP3     5520     TIP3     OH2      OT      -0.834000       15.9994           0
     33933 TIP3     5520     TIP3     H1       HT       0.417000       1.00800           0
     33934 TIP3     5520     TIP3     H2       HT       0.417000       1.00800           0
     33935 TIP3     5521     TIP3     OH2      OT      -0.834000       15.9994           0
     33936 TIP3     5521     TIP3     H1       HT       0.417000       1.00800           0
     33937 TIP3     5521     TIP3     H2       HT       0.417000       1.00800           0
     33938 TIP3     5522     TIP3     OH2      OT      -0.834000       15.9994           0
     33939 TIP3     5522     TIP3     H1       HT       0.417000       1.00800           0
     33940 TIP3     5522     TIP3     H2       HT       0.417000       1.00800           0
     33941 TIP3     5523     TIP3     OH2      OT      -0.834000       15.9994           0
     33942 TIP3     5523     TIP3     H1       HT       0.417000       1.00800           0
     33943 TIP3     5523     TIP3     H2       HT       0.417000       1.00800           0
     33944 TIP3     5524     TIP3     OH2      OT      -0.834000       15.9994           0
     33945 TIP3     5524     TIP3     H1       HT       0.417000       1.00800           0
     33946 TIP3     5524     TIP3     H2       HT       0.417000       1.00800           0
     33947 TIP3     5525     TIP3     OH2      OT      -0.834000       15.9994           0
     33948 TIP3     5525     TIP3     H1       HT       0.417000       1.00800           0
     33949 TIP3     5525     TIP3     H2       HT       0.417000       1.00800           0
     33950 TIP3     5526     TIP3     OH2      OT      -0.834000       15.9994           0
     33951 TIP3     5526     TIP3     H1       HT       0.417000       1.00800           0
     33952 TIP3     5526     TIP3     H2       HT       0.417000       1.00800           0
     33953 TIP3     5527     TIP3     OH2      OT      -0.834000       15.9994           0
     33954 TIP3     5527     TIP3     H1       HT       0.417000       1.00800           0
     33955 TIP3     5527     TIP3     H2       HT       0.417000       1.00800           0
     33956 TIP3     5528     TIP3     OH2      OT      -0.834000       15.9994           0
     33957 TIP3     5528     TIP3     H1       HT       0.417000       1.00800           0
     33958 TIP3     5528     TIP3     H2       HT       0.417000       1.00800           0
     33959 TIP3     5529     TIP3     OH2      OT      -0.834000       15.9994           0
     33960 TIP3     5529     TIP3     H1       HT       0.417000       1.00800           0
     33961 TIP3     5529     TIP3     H2       HT       0.417000       1.00800           0
     33962 TIP3     5530     TIP3     OH2      OT      -0.834000       15.9994           0
     33963 TIP3     5530     TIP3     H1       HT       0.417000       1.00800           0
     33964 TIP3     5530     TIP3     H2       HT       0.417000       1.00800           0
     33965 TIP3     5531     TIP3     OH2      OT      -0.834000       15.9994           0
     33966 TIP3     5531     TIP3     H1       HT       0.417000       1.00800           0
     33967 TIP3     5531     TIP3     H2       HT       0.417000       1.00800           0
     33968 TIP3     5532     TIP3     OH2      OT      -0.834000       15.9994           0
     33969 TIP3     5532     TIP3     H1       HT       0.417000       1.00800           0
     33970 TIP3     5532     TIP3     H2       HT       0.417000       1.00800           0
     33971 TIP3     5533     TIP3     OH2      OT      -0.834000       15.9994           0
     33972 TIP3     5533     TIP3     H1       HT       0.417000       1.00800           0
     33973 TIP3     5533     TIP3     H2       HT       0.417000       1.00800           0
     33974 TIP3     5534     TIP3     OH2      OT      -0.834000       15.9994           0
     33975 TIP3     5534     TIP3     H1       HT       0.417000       1.00800           0
     33976 TIP3     5534     TIP3     H2       HT       0.417000       1.00800           0
     33977 TIP3     5535     TIP3     OH2      OT      -0.834000       15.9994           0
     33978 TIP3     5535     TIP3     H1       HT       0.417000       1.00800           0
     33979 TIP3     5535     TIP3     H2       HT       0.417000       1.00800           0
     33980 TIP3     5536     TIP3     OH2      OT      -0.834000       15.9994           0
     33981 TIP3     5536     TIP3     H1       HT       0.417000       1.00800           0
     33982 TIP3     5536     TIP3     H2       HT       0.417000       1.00800           0
     33983 TIP3     5537     TIP3     OH2      OT      -0.834000       15.9994           0
     33984 TIP3     5537     TIP3     H1       HT       0.417000       1.00800           0
     33985 TIP3     5537     TIP3     H2       HT       0.417000       1.00800           0
     33986 TIP3     5538     TIP3     OH2      OT      -0.834000       15.9994           0
     33987 TIP3     5538     TIP3     H1       HT       0.417000       1.00800           0
     33988 TIP3     5538     TIP3     H2       HT       0.417000       1.00800           0
     33989 TIP3     5539     TIP3     OH2      OT      -0.834000       15.9994           0
     33990 TIP3     5539     TIP3     H1       HT       0.417000       1.00800           0
     33991 TIP3     5539     TIP3     H2       HT       0.417000       1.00800           0
     33992 TIP3     5540     TIP3     OH2      OT      -0.834000       15.9994           0
     33993 TIP3     5540     TIP3     H1       HT       0.417000       1.00800           0
     33994 TIP3     5540     TIP3     H2       HT       0.417000       1.00800           0
     33995 TIP3     5541     TIP3     OH2      OT      -0.834000       15.9994           0
     33996 TIP3     5541     TIP3     H1       HT       0.417000       1.00800           0
     33997 TIP3     5541     TIP3     H2       HT       0.417000       1.00800           0
     33998 TIP3     5542     TIP3     OH2      OT      -0.834000       15.9994           0
     33999 TIP3     5542     TIP3     H1       HT       0.417000       1.00800           0
     34000 TIP3     5542     TIP3     H2       HT       0.417000       1.00800           0
     34001 TIP3     5543     TIP3     OH2      OT      -0.834000       15.9994           0
     34002 TIP3     5543     TIP3     H1       HT       0.417000       1.00800           0
     34003 TIP3     5543     TIP3     H2       HT       0.417000       1.00800           0
     34004 TIP3     5544     TIP3     OH2      OT      -0.834000       15.9994           0
     34005 TIP3     5544     TIP3     H1       HT       0.417000       1.00800           0
     34006 TIP3     5544     TIP3     H2       HT       0.417000       1.00800           0
     34007 TIP3     5545     TIP3     OH2      OT      -0.834000       15.9994           0
     34008 TIP3     5545     TIP3     H1       HT       0.417000       1.00800           0
     34009 TIP3     5545     TIP3     H2       HT       0.417000       1.00800           0
     34010 TIP3     5546     TIP3     OH2      OT      -0.834000       15.9994           0
     34011 TIP3     5546     TIP3     H1       HT       0.417000       1.00800           0
     34012 TIP3     5546     TIP3     H2       HT       0.417000       1.00800           0
     34013 TIP3     5547     TIP3     OH2      OT      -0.834000       15.9994           0
     34014 TIP3     5547     TIP3     H1       HT       0.417000       1.00800           0
     34015 TIP3     5547     TIP3     H2       HT       0.417000       1.00800           0
     34016 TIP3     5548     TIP3     OH2      OT      -0.834000       15.9994           0
     34017 TIP3     5548     TIP3     H1       HT       0.417000       1.00800           0
     34018 TIP3     5548     TIP3     H2       HT       0.417000       1.00800           0
     34019 TIP3     5549     TIP3     OH2      OT      -0.834000       15.9994           0
     34020 TIP3     5549     TIP3     H1       HT       0.417000       1.00800           0
     34021 TIP3     5549     TIP3     H2       HT       0.417000       1.00800           0
     34022 TIP3     5550     TIP3     OH2      OT      -0.834000       15.9994           0
     34023 TIP3     5550     TIP3     H1       HT       0.417000       1.00800           0
     34024 TIP3     5550     TIP3     H2       HT       0.417000       1.00800           0
     34025 TIP3     5551     TIP3     OH2      OT      -0.834000       15.9994           0
     34026 TIP3     5551     TIP3     H1       HT       0.417000       1.00800           0
     34027 TIP3     5551     TIP3     H2       HT       0.417000       1.00800           0
     34028 TIP3     5552     TIP3     OH2      OT      -0.834000       15.9994           0
     34029 TIP3     5552     TIP3     H1       HT       0.417000       1.00800           0
     34030 TIP3     5552     TIP3     H2       HT       0.417000       1.00800           0
     34031 TIP3     5553     TIP3     OH2      OT      -0.834000       15.9994           0
     34032 TIP3     5553     TIP3     H1       HT       0.417000       1.00800           0
     34033 TIP3     5553     TIP3     H2       HT       0.417000       1.00800           0
     34034 TIP3     5554     TIP3     OH2      OT      -0.834000       15.9994           0
     34035 TIP3     5554     TIP3     H1       HT       0.417000       1.00800           0
     34036 TIP3     5554     TIP3     H2       HT       0.417000       1.00800           0
     34037 TIP3     5555     TIP3     OH2      OT      -0.834000       15.9994           0
     34038 TIP3     5555     TIP3     H1       HT       0.417000       1.00800           0
     34039 TIP3     5555     TIP3     H2       HT       0.417000       1.00800           0
     34040 TIP3     5556     TIP3     OH2      OT      -0.834000       15.9994           0
     34041 TIP3     5556     TIP3     H1       HT       0.417000       1.00800           0
     34042 TIP3     5556     TIP3     H2       HT       0.417000       1.00800           0
     34043 TIP3     5557     TIP3     OH2      OT      -0.834000       15.9994           0
     34044 TIP3     5557     TIP3     H1       HT       0.417000       1.00800           0
     34045 TIP3     5557     TIP3     H2       HT       0.417000       1.00800           0
     34046 TIP3     5558     TIP3     OH2      OT      -0.834000       15.9994           0
     34047 TIP3     5558     TIP3     H1       HT       0.417000       1.00800           0
     34048 TIP3     5558     TIP3     H2       HT       0.417000       1.00800           0
     34049 TIP3     5559     TIP3     OH2      OT      -0.834000       15.9994           0
     34050 TIP3     5559     TIP3     H1       HT       0.417000       1.00800           0
     34051 TIP3     5559     TIP3     H2       HT       0.417000       1.00800           0
     34052 TIP3     5560     TIP3     OH2      OT      -0.834000       15.9994           0
     34053 TIP3     5560     TIP3     H1       HT       0.417000       1.00800           0
     34054 TIP3     5560     TIP3     H2       HT       0.417000       1.00800           0
     34055 TIP3     5561     TIP3     OH2      OT      -0.834000       15.9994           0
     34056 TIP3     5561     TIP3     H1       HT       0.417000       1.00800           0
     34057 TIP3     5561     TIP3     H2       HT       0.417000       1.00800           0
     34058 TIP3     5562     TIP3     OH2      OT      -0.834000       15.9994           0
     34059 TIP3     5562     TIP3     H1       HT       0.417000       1.00800           0
     34060 TIP3     5562     TIP3     H2       HT       0.417000       1.00800           0
     34061 TIP3     5563     TIP3     OH2      OT      -0.834000       15.9994           0
     34062 TIP3     5563     TIP3     H1       HT       0.417000       1.00800           0
     34063 TIP3     5563     TIP3     H2       HT       0.417000       1.00800           0
     34064 TIP3     5564     TIP3     OH2      OT      -0.834000       15.9994           0
     34065 TIP3     5564     TIP3     H1       HT       0.417000       1.00800           0
     34066 TIP3     5564     TIP3     H2       HT       0.417000       1.00800           0
     34067 TIP3     5565     TIP3     OH2      OT      -0.834000       15.9994           0
     34068 TIP3     5565     TIP3     H1       HT       0.417000       1.00800           0
     34069 TIP3     5565     TIP3     H2       HT       0.417000       1.00800           0
     34070 TIP3     5566     TIP3     OH2      OT      -0.834000       15.9994           0
     34071 TIP3     5566     TIP3     H1       HT       0.417000       1.00800           0
     34072 TIP3     5566     TIP3     H2       HT       0.417000       1.00800           0
     34073 TIP3     5567     TIP3     OH2      OT      -0.834000       15.9994           0
     34074 TIP3     5567     TIP3     H1       HT       0.417000       1.00800           0
     34075 TIP3     5567     TIP3     H2       HT       0.417000       1.00800           0
     34076 TIP3     5568     TIP3     OH2      OT      -0.834000       15.9994           0
     34077 TIP3     5568     TIP3     H1       HT       0.417000       1.00800           0
     34078 TIP3     5568     TIP3     H2       HT       0.417000       1.00800           0
     34079 TIP3     5569     TIP3     OH2      OT      -0.834000       15.9994           0
     34080 TIP3     5569     TIP3     H1       HT       0.417000       1.00800           0
     34081 TIP3     5569     TIP3     H2       HT       0.417000       1.00800           0
     34082 TIP3     5570     TIP3     OH2      OT      -0.834000       15.9994           0
     34083 TIP3     5570     TIP3     H1       HT       0.417000       1.00800           0
     34084 TIP3     5570     TIP3     H2       HT       0.417000       1.00800           0
     34085 TIP3     5571     TIP3     OH2      OT      -0.834000       15.9994           0
     34086 TIP3     5571     TIP3     H1       HT       0.417000       1.00800           0
     34087 TIP3     5571     TIP3     H2       HT       0.417000       1.00800           0
     34088 TIP3     5572     TIP3     OH2      OT      -0.834000       15.9994           0
     34089 TIP3     5572     TIP3     H1       HT       0.417000       1.00800           0
     34090 TIP3     5572     TIP3     H2       HT       0.417000       1.00800           0
     34091 TIP3     5573     TIP3     OH2      OT      -0.834000       15.9994           0
     34092 TIP3     5573     TIP3     H1       HT       0.417000       1.00800           0
     34093 TIP3     5573     TIP3     H2       HT       0.417000       1.00800           0
     34094 TIP3     5574     TIP3     OH2      OT      -0.834000       15.9994           0
     34095 TIP3     5574     TIP3     H1       HT       0.417000       1.00800           0
     34096 TIP3     5574     TIP3     H2       HT       0.417000       1.00800           0
     34097 TIP3     5575     TIP3     OH2      OT      -0.834000       15.9994           0
     34098 TIP3     5575     TIP3     H1       HT       0.417000       1.00800           0
     34099 TIP3     5575     TIP3     H2       HT       0.417000       1.00800           0
     34100 TIP3     5576     TIP3     OH2      OT      -0.834000       15.9994           0
     34101 TIP3     5576     TIP3     H1       HT       0.417000       1.00800           0
     34102 TIP3     5576     TIP3     H2       HT       0.417000       1.00800           0
     34103 TIP3     5577     TIP3     OH2      OT      -0.834000       15.9994           0
     34104 TIP3     5577     TIP3     H1       HT       0.417000       1.00800           0
     34105 TIP3     5577     TIP3     H2       HT       0.417000       1.00800           0
     34106 TIP3     5578     TIP3     OH2      OT      -0.834000       15.9994           0
     34107 TIP3     5578     TIP3     H1       HT       0.417000       1.00800           0
     34108 TIP3     5578     TIP3     H2       HT       0.417000       1.00800           0
     34109 TIP3     5579     TIP3     OH2      OT      -0.834000       15.9994           0
     34110 TIP3     5579     TIP3     H1       HT       0.417000       1.00800           0
     34111 TIP3     5579     TIP3     H2       HT       0.417000       1.00800           0
     34112 TIP3     5580     TIP3     OH2      OT      -0.834000       15.9994           0
     34113 TIP3     5580     TIP3     H1       HT       0.417000       1.00800           0
     34114 TIP3     5580     TIP3     H2       HT       0.417000       1.00800           0
     34115 TIP3     5581     TIP3     OH2      OT      -0.834000       15.9994           0
     34116 TIP3     5581     TIP3     H1       HT       0.417000       1.00800           0
     34117 TIP3     5581     TIP3     H2       HT       0.417000       1.00800           0
     34118 TIP3     5582     TIP3     OH2      OT      -0.834000       15.9994           0
     34119 TIP3     5582     TIP3     H1       HT       0.417000       1.00800           0
     34120 TIP3     5582     TIP3     H2       HT       0.417000       1.00800           0
     34121 TIP3     5583     TIP3     OH2      OT      -0.834000       15.9994           0
     34122 TIP3     5583     TIP3     H1       HT       0.417000       1.00800           0
     34123 TIP3     5583     TIP3     H2       HT       0.417000       1.00800           0
     34124 TIP3     5584     TIP3     OH2      OT      -0.834000       15.9994           0
     34125 TIP3     5584     TIP3     H1       HT       0.417000       1.00800           0
     34126 TIP3     5584     TIP3     H2       HT       0.417000       1.00800           0
     34127 TIP3     5585     TIP3     OH2      OT      -0.834000       15.9994           0
     34128 TIP3     5585     TIP3     H1       HT       0.417000       1.00800           0
     34129 TIP3     5585     TIP3     H2       HT       0.417000       1.00800           0
     34130 TIP3     5586     TIP3     OH2      OT      -0.834000       15.9994           0
     34131 TIP3     5586     TIP3     H1       HT       0.417000       1.00800           0
     34132 TIP3     5586     TIP3     H2       HT       0.417000       1.00800           0
     34133 TIP3     5587     TIP3     OH2      OT      -0.834000       15.9994           0
     34134 TIP3     5587     TIP3     H1       HT       0.417000       1.00800           0
     34135 TIP3     5587     TIP3     H2       HT       0.417000       1.00800           0
     34136 TIP3     5588     TIP3     OH2      OT      -0.834000       15.9994           0
     34137 TIP3     5588     TIP3     H1       HT       0.417000       1.00800           0
     34138 TIP3     5588     TIP3     H2       HT       0.417000       1.00800           0
     34139 TIP3     5589     TIP3     OH2      OT      -0.834000       15.9994           0
     34140 TIP3     5589     TIP3     H1       HT       0.417000       1.00800           0
     34141 TIP3     5589     TIP3     H2       HT       0.417000       1.00800           0
     34142 TIP3     5590     TIP3     OH2      OT      -0.834000       15.9994           0
     34143 TIP3     5590     TIP3     H1       HT       0.417000       1.00800           0
     34144 TIP3     5590     TIP3     H2       HT       0.417000       1.00800           0
     34145 TIP3     5591     TIP3     OH2      OT      -0.834000       15.9994           0
     34146 TIP3     5591     TIP3     H1       HT       0.417000       1.00800           0
     34147 TIP3     5591     TIP3     H2       HT       0.417000       1.00800           0
     34148 TIP3     5592     TIP3     OH2      OT      -0.834000       15.9994           0
     34149 TIP3     5592     TIP3     H1       HT       0.417000       1.00800           0
     34150 TIP3     5592     TIP3     H2       HT       0.417000       1.00800           0
     34151 TIP3     5593     TIP3     OH2      OT      -0.834000       15.9994           0
     34152 TIP3     5593     TIP3     H1       HT       0.417000       1.00800           0
     34153 TIP3     5593     TIP3     H2       HT       0.417000       1.00800           0
     34154 TIP3     5594     TIP3     OH2      OT      -0.834000       15.9994           0
     34155 TIP3     5594     TIP3     H1       HT       0.417000       1.00800           0
     34156 TIP3     5594     TIP3     H2       HT       0.417000       1.00800           0
     34157 TIP3     5595     TIP3     OH2      OT      -0.834000       15.9994           0
     34158 TIP3     5595     TIP3     H1       HT       0.417000       1.00800           0
     34159 TIP3     5595     TIP3     H2       HT       0.417000       1.00800           0
     34160 TIP3     5596     TIP3     OH2      OT      -0.834000       15.9994           0
     34161 TIP3     5596     TIP3     H1       HT       0.417000       1.00800           0
     34162 TIP3     5596     TIP3     H2       HT       0.417000       1.00800           0
     34163 TIP3     5597     TIP3     OH2      OT      -0.834000       15.9994           0
     34164 TIP3     5597     TIP3     H1       HT       0.417000       1.00800           0
     34165 TIP3     5597     TIP3     H2       HT       0.417000       1.00800           0
     34166 TIP3     5598     TIP3     OH2      OT      -0.834000       15.9994           0
     34167 TIP3     5598     TIP3     H1       HT       0.417000       1.00800           0
     34168 TIP3     5598     TIP3     H2       HT       0.417000       1.00800           0
     34169 TIP3     5599     TIP3     OH2      OT      -0.834000       15.9994           0
     34170 TIP3     5599     TIP3     H1       HT       0.417000       1.00800           0
     34171 TIP3     5599     TIP3     H2       HT       0.417000       1.00800           0
     34172 TIP3     5600     TIP3     OH2      OT      -0.834000       15.9994           0
     34173 TIP3     5600     TIP3     H1       HT       0.417000       1.00800           0
     34174 TIP3     5600     TIP3     H2       HT       0.417000       1.00800           0
     34175 TIP3     5601     TIP3     OH2      OT      -0.834000       15.9994           0
     34176 TIP3     5601     TIP3     H1       HT       0.417000       1.00800           0
     34177 TIP3     5601     TIP3     H2       HT       0.417000       1.00800           0
     34178 TIP3     5602     TIP3     OH2      OT      -0.834000       15.9994           0
     34179 TIP3     5602     TIP3     H1       HT       0.417000       1.00800           0
     34180 TIP3     5602     TIP3     H2       HT       0.417000       1.00800           0
     34181 TIP3     5603     TIP3     OH2      OT      -0.834000       15.9994           0
     34182 TIP3     5603     TIP3     H1       HT       0.417000       1.00800           0
     34183 TIP3     5603     TIP3     H2       HT       0.417000       1.00800           0
     34184 TIP3     5604     TIP3     OH2      OT      -0.834000       15.9994           0
     34185 TIP3     5604     TIP3     H1       HT       0.417000       1.00800           0
     34186 TIP3     5604     TIP3     H2       HT       0.417000       1.00800           0
     34187 TIP3     5605     TIP3     OH2      OT      -0.834000       15.9994           0
     34188 TIP3     5605     TIP3     H1       HT       0.417000       1.00800           0
     34189 TIP3     5605     TIP3     H2       HT       0.417000       1.00800           0
     34190 TIP3     5606     TIP3     OH2      OT      -0.834000       15.9994           0
     34191 TIP3     5606     TIP3     H1       HT       0.417000       1.00800           0
     34192 TIP3     5606     TIP3     H2       HT       0.417000       1.00800           0
     34193 TIP3     5607     TIP3     OH2      OT      -0.834000       15.9994           0
     34194 TIP3     5607     TIP3     H1       HT       0.417000       1.00800           0
     34195 TIP3     5607     TIP3     H2       HT       0.417000       1.00800           0
     34196 TIP3     5608     TIP3     OH2      OT      -0.834000       15.9994           0
     34197 TIP3     5608     TIP3     H1       HT       0.417000       1.00800           0
     34198 TIP3     5608     TIP3     H2       HT       0.417000       1.00800           0
     34199 TIP3     5609     TIP3     OH2      OT      -0.834000       15.9994           0
     34200 TIP3     5609     TIP3     H1       HT       0.417000       1.00800           0
     34201 TIP3     5609     TIP3     H2       HT       0.417000       1.00800           0
     34202 TIP3     5610     TIP3     OH2      OT      -0.834000       15.9994           0
     34203 TIP3     5610     TIP3     H1       HT       0.417000       1.00800           0
     34204 TIP3     5610     TIP3     H2       HT       0.417000       1.00800           0
     34205 TIP3     5611     TIP3     OH2      OT      -0.834000       15.9994           0
     34206 TIP3     5611     TIP3     H1       HT       0.417000       1.00800           0
     34207 TIP3     5611     TIP3     H2       HT       0.417000       1.00800           0
     34208 TIP3     5612     TIP3     OH2      OT      -0.834000       15.9994           0
     34209 TIP3     5612     TIP3     H1       HT       0.417000       1.00800           0
     34210 TIP3     5612     TIP3     H2       HT       0.417000       1.00800           0
     34211 TIP3     5613     TIP3     OH2      OT      -0.834000       15.9994           0
     34212 TIP3     5613     TIP3     H1       HT       0.417000       1.00800           0
     34213 TIP3     5613     TIP3     H2       HT       0.417000       1.00800           0
     34214 TIP3     5614     TIP3     OH2      OT      -0.834000       15.9994           0
     34215 TIP3     5614     TIP3     H1       HT       0.417000       1.00800           0
     34216 TIP3     5614     TIP3     H2       HT       0.417000       1.00800           0
     34217 TIP3     5615     TIP3     OH2      OT      -0.834000       15.9994           0
     34218 TIP3     5615     TIP3     H1       HT       0.417000       1.00800           0
     34219 TIP3     5615     TIP3     H2       HT       0.417000       1.00800           0
     34220 TIP3     5616     TIP3     OH2      OT      -0.834000       15.9994           0
     34221 TIP3     5616     TIP3     H1       HT       0.417000       1.00800           0
     34222 TIP3     5616     TIP3     H2       HT       0.417000       1.00800           0
     34223 TIP3     5617     TIP3     OH2      OT      -0.834000       15.9994           0
     34224 TIP3     5617     TIP3     H1       HT       0.417000       1.00800           0
     34225 TIP3     5617     TIP3     H2       HT       0.417000       1.00800           0
     34226 TIP3     5618     TIP3     OH2      OT      -0.834000       15.9994           0
     34227 TIP3     5618     TIP3     H1       HT       0.417000       1.00800           0
     34228 TIP3     5618     TIP3     H2       HT       0.417000       1.00800           0
     34229 TIP3     5619     TIP3     OH2      OT      -0.834000       15.9994           0
     34230 TIP3     5619     TIP3     H1       HT       0.417000       1.00800           0
     34231 TIP3     5619     TIP3     H2       HT       0.417000       1.00800           0
     34232 TIP3     5620     TIP3     OH2      OT      -0.834000       15.9994           0
     34233 TIP3     5620     TIP3     H1       HT       0.417000       1.00800           0
     34234 TIP3     5620     TIP3     H2       HT       0.417000       1.00800           0
     34235 TIP3     5621     TIP3     OH2      OT      -0.834000       15.9994           0
     34236 TIP3     5621     TIP3     H1       HT       0.417000       1.00800           0
     34237 TIP3     5621     TIP3     H2       HT       0.417000       1.00800           0
     34238 TIP3     5622     TIP3     OH2      OT      -0.834000       15.9994           0
     34239 TIP3     5622     TIP3     H1       HT       0.417000       1.00800           0
     34240 TIP3     5622     TIP3     H2       HT       0.417000       1.00800           0
     34241 TIP3     5623     TIP3     OH2      OT      -0.834000       15.9994           0
     34242 TIP3     5623     TIP3     H1       HT       0.417000       1.00800           0
     34243 TIP3     5623     TIP3     H2       HT       0.417000       1.00800           0
     34244 TIP3     5624     TIP3     OH2      OT      -0.834000       15.9994           0
     34245 TIP3     5624     TIP3     H1       HT       0.417000       1.00800           0
     34246 TIP3     5624     TIP3     H2       HT       0.417000       1.00800           0
     34247 TIP3     5625     TIP3     OH2      OT      -0.834000       15.9994           0
     34248 TIP3     5625     TIP3     H1       HT       0.417000       1.00800           0
     34249 TIP3     5625     TIP3     H2       HT       0.417000       1.00800           0
     34250 TIP3     5626     TIP3     OH2      OT      -0.834000       15.9994           0
     34251 TIP3     5626     TIP3     H1       HT       0.417000       1.00800           0
     34252 TIP3     5626     TIP3     H2       HT       0.417000       1.00800           0
     34253 TIP3     5627     TIP3     OH2      OT      -0.834000       15.9994           0
     34254 TIP3     5627     TIP3     H1       HT       0.417000       1.00800           0
     34255 TIP3     5627     TIP3     H2       HT       0.417000       1.00800           0
     34256 TIP3     5628     TIP3     OH2      OT      -0.834000       15.9994           0
     34257 TIP3     5628     TIP3     H1       HT       0.417000       1.00800           0
     34258 TIP3     5628     TIP3     H2       HT       0.417000       1.00800           0
     34259 TIP3     5629     TIP3     OH2      OT      -0.834000       15.9994           0
     34260 TIP3     5629     TIP3     H1       HT       0.417000       1.00800           0
     34261 TIP3     5629     TIP3     H2       HT       0.417000       1.00800           0
     34262 TIP3     5630     TIP3     OH2      OT      -0.834000       15.9994           0
     34263 TIP3     5630     TIP3     H1       HT       0.417000       1.00800           0
     34264 TIP3     5630     TIP3     H2       HT       0.417000       1.00800           0
     34265 TIP3     5631     TIP3     OH2      OT      -0.834000       15.9994           0
     34266 TIP3     5631     TIP3     H1       HT       0.417000       1.00800           0
     34267 TIP3     5631     TIP3     H2       HT       0.417000       1.00800           0
     34268 TIP3     5632     TIP3     OH2      OT      -0.834000       15.9994           0
     34269 TIP3     5632     TIP3     H1       HT       0.417000       1.00800           0
     34270 TIP3     5632     TIP3     H2       HT       0.417000       1.00800           0
     34271 TIP3     5633     TIP3     OH2      OT      -0.834000       15.9994           0
     34272 TIP3     5633     TIP3     H1       HT       0.417000       1.00800           0
     34273 TIP3     5633     TIP3     H2       HT       0.417000       1.00800           0
     34274 TIP3     5634     TIP3     OH2      OT      -0.834000       15.9994           0
     34275 TIP3     5634     TIP3     H1       HT       0.417000       1.00800           0
     34276 TIP3     5634     TIP3     H2       HT       0.417000       1.00800           0
     34277 TIP3     5635     TIP3     OH2      OT      -0.834000       15.9994           0
     34278 TIP3     5635     TIP3     H1       HT       0.417000       1.00800           0
     34279 TIP3     5635     TIP3     H2       HT       0.417000       1.00800           0
     34280 TIP3     5636     TIP3     OH2      OT      -0.834000       15.9994           0
     34281 TIP3     5636     TIP3     H1       HT       0.417000       1.00800           0
     34282 TIP3     5636     TIP3     H2       HT       0.417000       1.00800           0
     34283 TIP3     5637     TIP3     OH2      OT      -0.834000       15.9994           0
     34284 TIP3     5637     TIP3     H1       HT       0.417000       1.00800           0
     34285 TIP3     5637     TIP3     H2       HT       0.417000       1.00800           0
     34286 TIP3     5638     TIP3     OH2      OT      -0.834000       15.9994           0
     34287 TIP3     5638     TIP3     H1       HT       0.417000       1.00800           0
     34288 TIP3     5638     TIP3     H2       HT       0.417000       1.00800           0
     34289 TIP3     5639     TIP3     OH2      OT      -0.834000       15.9994           0
     34290 TIP3     5639     TIP3     H1       HT       0.417000       1.00800           0
     34291 TIP3     5639     TIP3     H2       HT       0.417000       1.00800           0
     34292 TIP3     5640     TIP3     OH2      OT      -0.834000       15.9994           0
     34293 TIP3     5640     TIP3     H1       HT       0.417000       1.00800           0
     34294 TIP3     5640     TIP3     H2       HT       0.417000       1.00800           0
     34295 TIP3     5641     TIP3     OH2      OT      -0.834000       15.9994           0
     34296 TIP3     5641     TIP3     H1       HT       0.417000       1.00800           0
     34297 TIP3     5641     TIP3     H2       HT       0.417000       1.00800           0
     34298 TIP3     5642     TIP3     OH2      OT      -0.834000       15.9994           0
     34299 TIP3     5642     TIP3     H1       HT       0.417000       1.00800           0
     34300 TIP3     5642     TIP3     H2       HT       0.417000       1.00800           0
     34301 TIP3     5643     TIP3     OH2      OT      -0.834000       15.9994           0
     34302 TIP3     5643     TIP3     H1       HT       0.417000       1.00800           0
     34303 TIP3     5643     TIP3     H2       HT       0.417000       1.00800           0
     34304 TIP3     5644     TIP3     OH2      OT      -0.834000       15.9994           0
     34305 TIP3     5644     TIP3     H1       HT       0.417000       1.00800           0
     34306 TIP3     5644     TIP3     H2       HT       0.417000       1.00800           0
     34307 TIP3     5645     TIP3     OH2      OT      -0.834000       15.9994           0
     34308 TIP3     5645     TIP3     H1       HT       0.417000       1.00800           0
     34309 TIP3     5645     TIP3     H2       HT       0.417000       1.00800           0
     34310 TIP3     5646     TIP3     OH2      OT      -0.834000       15.9994           0
     34311 TIP3     5646     TIP3     H1       HT       0.417000       1.00800           0
     34312 TIP3     5646     TIP3     H2       HT       0.417000       1.00800           0
     34313 TIP3     5647     TIP3     OH2      OT      -0.834000       15.9994           0
     34314 TIP3     5647     TIP3     H1       HT       0.417000       1.00800           0
     34315 TIP3     5647     TIP3     H2       HT       0.417000       1.00800           0
     34316 TIP3     5648     TIP3     OH2      OT      -0.834000       15.9994           0
     34317 TIP3     5648     TIP3     H1       HT       0.417000       1.00800           0
     34318 TIP3     5648     TIP3     H2       HT       0.417000       1.00800           0
     34319 TIP3     5649     TIP3     OH2      OT      -0.834000       15.9994           0
     34320 TIP3     5649     TIP3     H1       HT       0.417000       1.00800           0
     34321 TIP3     5649     TIP3     H2       HT       0.417000       1.00800           0
     34322 TIP3     5650     TIP3     OH2      OT      -0.834000       15.9994           0
     34323 TIP3     5650     TIP3     H1       HT       0.417000       1.00800           0
     34324 TIP3     5650     TIP3     H2       HT       0.417000       1.00800           0
     34325 TIP3     5651     TIP3     OH2      OT      -0.834000       15.9994           0
     34326 TIP3     5651     TIP3     H1       HT       0.417000       1.00800           0
     34327 TIP3     5651     TIP3     H2       HT       0.417000       1.00800           0
     34328 TIP3     5652     TIP3     OH2      OT      -0.834000       15.9994           0
     34329 TIP3     5652     TIP3     H1       HT       0.417000       1.00800           0
     34330 TIP3     5652     TIP3     H2       HT       0.417000       1.00800           0
     34331 TIP3     5653     TIP3     OH2      OT      -0.834000       15.9994           0
     34332 TIP3     5653     TIP3     H1       HT       0.417000       1.00800           0
     34333 TIP3     5653     TIP3     H2       HT       0.417000       1.00800           0
     34334 TIP3     5654     TIP3     OH2      OT      -0.834000       15.9994           0
     34335 TIP3     5654     TIP3     H1       HT       0.417000       1.00800           0
     34336 TIP3     5654     TIP3     H2       HT       0.417000       1.00800           0
     34337 TIP3     5655     TIP3     OH2      OT      -0.834000       15.9994           0
     34338 TIP3     5655     TIP3     H1       HT       0.417000       1.00800           0
     34339 TIP3     5655     TIP3     H2       HT       0.417000       1.00800           0
     34340 TIP3     5656     TIP3     OH2      OT      -0.834000       15.9994           0
     34341 TIP3     5656     TIP3     H1       HT       0.417000       1.00800           0
     34342 TIP3     5656     TIP3     H2       HT       0.417000       1.00800           0
     34343 TIP3     5657     TIP3     OH2      OT      -0.834000       15.9994           0
     34344 TIP3     5657     TIP3     H1       HT       0.417000       1.00800           0
     34345 TIP3     5657     TIP3     H2       HT       0.417000       1.00800           0
     34346 TIP3     5658     TIP3     OH2      OT      -0.834000       15.9994           0
     34347 TIP3     5658     TIP3     H1       HT       0.417000       1.00800           0
     34348 TIP3     5658     TIP3     H2       HT       0.417000       1.00800           0
     34349 TIP3     5659     TIP3     OH2      OT      -0.834000       15.9994           0
     34350 TIP3     5659     TIP3     H1       HT       0.417000       1.00800           0
     34351 TIP3     5659     TIP3     H2       HT       0.417000       1.00800           0
     34352 TIP3     5660     TIP3     OH2      OT      -0.834000       15.9994           0
     34353 TIP3     5660     TIP3     H1       HT       0.417000       1.00800           0
     34354 TIP3     5660     TIP3     H2       HT       0.417000       1.00800           0
     34355 TIP3     5661     TIP3     OH2      OT      -0.834000       15.9994           0
     34356 TIP3     5661     TIP3     H1       HT       0.417000       1.00800           0
     34357 TIP3     5661     TIP3     H2       HT       0.417000       1.00800           0
     34358 TIP3     5662     TIP3     OH2      OT      -0.834000       15.9994           0
     34359 TIP3     5662     TIP3     H1       HT       0.417000       1.00800           0
     34360 TIP3     5662     TIP3     H2       HT       0.417000       1.00800           0
     34361 TIP3     5663     TIP3     OH2      OT      -0.834000       15.9994           0
     34362 TIP3     5663     TIP3     H1       HT       0.417000       1.00800           0
     34363 TIP3     5663     TIP3     H2       HT       0.417000       1.00800           0
     34364 TIP3     5664     TIP3     OH2      OT      -0.834000       15.9994           0
     34365 TIP3     5664     TIP3     H1       HT       0.417000       1.00800           0
     34366 TIP3     5664     TIP3     H2       HT       0.417000       1.00800           0
     34367 TIP3     5665     TIP3     OH2      OT      -0.834000       15.9994           0
     34368 TIP3     5665     TIP3     H1       HT       0.417000       1.00800           0
     34369 TIP3     5665     TIP3     H2       HT       0.417000       1.00800           0
     34370 TIP3     5666     TIP3     OH2      OT      -0.834000       15.9994           0
     34371 TIP3     5666     TIP3     H1       HT       0.417000       1.00800           0
     34372 TIP3     5666     TIP3     H2       HT       0.417000       1.00800           0
     34373 TIP3     5667     TIP3     OH2      OT      -0.834000       15.9994           0
     34374 TIP3     5667     TIP3     H1       HT       0.417000       1.00800           0
     34375 TIP3     5667     TIP3     H2       HT       0.417000       1.00800           0
     34376 TIP3     5668     TIP3     OH2      OT      -0.834000       15.9994           0
     34377 TIP3     5668     TIP3     H1       HT       0.417000       1.00800           0
     34378 TIP3     5668     TIP3     H2       HT       0.417000       1.00800           0
     34379 TIP3     5669     TIP3     OH2      OT      -0.834000       15.9994           0
     34380 TIP3     5669     TIP3     H1       HT       0.417000       1.00800           0
     34381 TIP3     5669     TIP3     H2       HT       0.417000       1.00800           0
     34382 TIP3     5670     TIP3     OH2      OT      -0.834000       15.9994           0
     34383 TIP3     5670     TIP3     H1       HT       0.417000       1.00800           0
     34384 TIP3     5670     TIP3     H2       HT       0.417000       1.00800           0
     34385 TIP3     5671     TIP3     OH2      OT      -0.834000       15.9994           0
     34386 TIP3     5671     TIP3     H1       HT       0.417000       1.00800           0
     34387 TIP3     5671     TIP3     H2       HT       0.417000       1.00800           0
     34388 TIP3     5672     TIP3     OH2      OT      -0.834000       15.9994           0
     34389 TIP3     5672     TIP3     H1       HT       0.417000       1.00800           0
     34390 TIP3     5672     TIP3     H2       HT       0.417000       1.00800           0
     34391 TIP3     5673     TIP3     OH2      OT      -0.834000       15.9994           0
     34392 TIP3     5673     TIP3     H1       HT       0.417000       1.00800           0
     34393 TIP3     5673     TIP3     H2       HT       0.417000       1.00800           0
     34394 TIP3     5674     TIP3     OH2      OT      -0.834000       15.9994           0
     34395 TIP3     5674     TIP3     H1       HT       0.417000       1.00800           0
     34396 TIP3     5674     TIP3     H2       HT       0.417000       1.00800           0
     34397 TIP3     5675     TIP3     OH2      OT      -0.834000       15.9994           0
     34398 TIP3     5675     TIP3     H1       HT       0.417000       1.00800           0
     34399 TIP3     5675     TIP3     H2       HT       0.417000       1.00800           0
     34400 TIP3     5676     TIP3     OH2      OT      -0.834000       15.9994           0
     34401 TIP3     5676     TIP3     H1       HT       0.417000       1.00800           0
     34402 TIP3     5676     TIP3     H2       HT       0.417000       1.00800           0
     34403 TIP3     5677     TIP3     OH2      OT      -0.834000       15.9994           0
     34404 TIP3     5677     TIP3     H1       HT       0.417000       1.00800           0
     34405 TIP3     5677     TIP3     H2       HT       0.417000       1.00800           0
     34406 TIP3     5678     TIP3     OH2      OT      -0.834000       15.9994           0
     34407 TIP3     5678     TIP3     H1       HT       0.417000       1.00800           0
     34408 TIP3     5678     TIP3     H2       HT       0.417000       1.00800           0
     34409 TIP3     5679     TIP3     OH2      OT      -0.834000       15.9994           0
     34410 TIP3     5679     TIP3     H1       HT       0.417000       1.00800           0
     34411 TIP3     5679     TIP3     H2       HT       0.417000       1.00800           0
     34412 TIP3     5680     TIP3     OH2      OT      -0.834000       15.9994           0
     34413 TIP3     5680     TIP3     H1       HT       0.417000       1.00800           0
     34414 TIP3     5680     TIP3     H2       HT       0.417000       1.00800           0
     34415 TIP3     5681     TIP3     OH2      OT      -0.834000       15.9994           0
     34416 TIP3     5681     TIP3     H1       HT       0.417000       1.00800           0
     34417 TIP3     5681     TIP3     H2       HT       0.417000       1.00800           0
     34418 TIP3     5682     TIP3     OH2      OT      -0.834000       15.9994           0
     34419 TIP3     5682     TIP3     H1       HT       0.417000       1.00800           0
     34420 TIP3     5682     TIP3     H2       HT       0.417000       1.00800           0
     34421 TIP3     5683     TIP3     OH2      OT      -0.834000       15.9994           0
     34422 TIP3     5683     TIP3     H1       HT       0.417000       1.00800           0
     34423 TIP3     5683     TIP3     H2       HT       0.417000       1.00800           0
     34424 TIP3     5684     TIP3     OH2      OT      -0.834000       15.9994           0
     34425 TIP3     5684     TIP3     H1       HT       0.417000       1.00800           0
     34426 TIP3     5684     TIP3     H2       HT       0.417000       1.00800           0
     34427 TIP3     5685     TIP3     OH2      OT      -0.834000       15.9994           0
     34428 TIP3     5685     TIP3     H1       HT       0.417000       1.00800           0
     34429 TIP3     5685     TIP3     H2       HT       0.417000       1.00800           0
     34430 TIP3     5686     TIP3     OH2      OT      -0.834000       15.9994           0
     34431 TIP3     5686     TIP3     H1       HT       0.417000       1.00800           0
     34432 TIP3     5686     TIP3     H2       HT       0.417000       1.00800           0
     34433 TIP3     5687     TIP3     OH2      OT      -0.834000       15.9994           0
     34434 TIP3     5687     TIP3     H1       HT       0.417000       1.00800           0
     34435 TIP3     5687     TIP3     H2       HT       0.417000       1.00800           0
     34436 TIP3     5688     TIP3     OH2      OT      -0.834000       15.9994           0
     34437 TIP3     5688     TIP3     H1       HT       0.417000       1.00800           0
     34438 TIP3     5688     TIP3     H2       HT       0.417000       1.00800           0
     34439 TIP3     5689     TIP3     OH2      OT      -0.834000       15.9994           0
     34440 TIP3     5689     TIP3     H1       HT       0.417000       1.00800           0
     34441 TIP3     5689     TIP3     H2       HT       0.417000       1.00800           0
     34442 TIP3     5690     TIP3     OH2      OT      -0.834000       15.9994           0
     34443 TIP3     5690     TIP3     H1       HT       0.417000       1.00800           0
     34444 TIP3     5690     TIP3     H2       HT       0.417000       1.00800           0
     34445 TIP3     5691     TIP3     OH2      OT      -0.834000       15.9994           0
     34446 TIP3     5691     TIP3     H1       HT       0.417000       1.00800           0
     34447 TIP3     5691     TIP3     H2       HT       0.417000       1.00800           0
     34448 TIP3     5692     TIP3     OH2      OT      -0.834000       15.9994           0
     34449 TIP3     5692     TIP3     H1       HT       0.417000       1.00800           0
     34450 TIP3     5692     TIP3     H2       HT       0.417000       1.00800           0
     34451 TIP3     5693     TIP3     OH2      OT      -0.834000       15.9994           0
     34452 TIP3     5693     TIP3     H1       HT       0.417000       1.00800           0
     34453 TIP3     5693     TIP3     H2       HT       0.417000       1.00800           0
     34454 TIP3     5694     TIP3     OH2      OT      -0.834000       15.9994           0
     34455 TIP3     5694     TIP3     H1       HT       0.417000       1.00800           0
     34456 TIP3     5694     TIP3     H2       HT       0.417000       1.00800           0
     34457 TIP3     5695     TIP3     OH2      OT      -0.834000       15.9994           0
     34458 TIP3     5695     TIP3     H1       HT       0.417000       1.00800           0
     34459 TIP3     5695     TIP3     H2       HT       0.417000       1.00800           0
     34460 TIP3     5696     TIP3     OH2      OT      -0.834000       15.9994           0
     34461 TIP3     5696     TIP3     H1       HT       0.417000       1.00800           0
     34462 TIP3     5696     TIP3     H2       HT       0.417000       1.00800           0
     34463 TIP3     5697     TIP3     OH2      OT      -0.834000       15.9994           0
     34464 TIP3     5697     TIP3     H1       HT       0.417000       1.00800           0
     34465 TIP3     5697     TIP3     H2       HT       0.417000       1.00800           0
     34466 TIP3     5698     TIP3     OH2      OT      -0.834000       15.9994           0
     34467 TIP3     5698     TIP3     H1       HT       0.417000       1.00800           0
     34468 TIP3     5698     TIP3     H2       HT       0.417000       1.00800           0
     34469 TIP3     5699     TIP3     OH2      OT      -0.834000       15.9994           0
     34470 TIP3     5699     TIP3     H1       HT       0.417000       1.00800           0
     34471 TIP3     5699     TIP3     H2       HT       0.417000       1.00800           0
     34472 TIP3     5700     TIP3     OH2      OT      -0.834000       15.9994           0
     34473 TIP3     5700     TIP3     H1       HT       0.417000       1.00800           0
     34474 TIP3     5700     TIP3     H2       HT       0.417000       1.00800           0
     34475 TIP3     5701     TIP3     OH2      OT      -0.834000       15.9994           0
     34476 TIP3     5701     TIP3     H1       HT       0.417000       1.00800           0
     34477 TIP3     5701     TIP3     H2       HT       0.417000       1.00800           0
     34478 TIP3     5702     TIP3     OH2      OT      -0.834000       15.9994           0
     34479 TIP3     5702     TIP3     H1       HT       0.417000       1.00800           0
     34480 TIP3     5702     TIP3     H2       HT       0.417000       1.00800           0
     34481 TIP3     5703     TIP3     OH2      OT      -0.834000       15.9994           0
     34482 TIP3     5703     TIP3     H1       HT       0.417000       1.00800           0
     34483 TIP3     5703     TIP3     H2       HT       0.417000       1.00800           0
     34484 TIP3     5704     TIP3     OH2      OT      -0.834000       15.9994           0
     34485 TIP3     5704     TIP3     H1       HT       0.417000       1.00800           0
     34486 TIP3     5704     TIP3     H2       HT       0.417000       1.00800           0
     34487 TIP3     5705     TIP3     OH2      OT      -0.834000       15.9994           0
     34488 TIP3     5705     TIP3     H1       HT       0.417000       1.00800           0
     34489 TIP3     5705     TIP3     H2       HT       0.417000       1.00800           0
     34490 TIP3     5706     TIP3     OH2      OT      -0.834000       15.9994           0
     34491 TIP3     5706     TIP3     H1       HT       0.417000       1.00800           0
     34492 TIP3     5706     TIP3     H2       HT       0.417000       1.00800           0
     34493 TIP3     5707     TIP3     OH2      OT      -0.834000       15.9994           0
     34494 TIP3     5707     TIP3     H1       HT       0.417000       1.00800           0
     34495 TIP3     5707     TIP3     H2       HT       0.417000       1.00800           0
     34496 TIP3     5708     TIP3     OH2      OT      -0.834000       15.9994           0
     34497 TIP3     5708     TIP3     H1       HT       0.417000       1.00800           0
     34498 TIP3     5708     TIP3     H2       HT       0.417000       1.00800           0
     34499 TIP3     5709     TIP3     OH2      OT      -0.834000       15.9994           0
     34500 TIP3     5709     TIP3     H1       HT       0.417000       1.00800           0
     34501 TIP3     5709     TIP3     H2       HT       0.417000       1.00800           0
     34502 TIP3     5710     TIP3     OH2      OT      -0.834000       15.9994           0
     34503 TIP3     5710     TIP3     H1       HT       0.417000       1.00800           0
     34504 TIP3     5710     TIP3     H2       HT       0.417000       1.00800           0
     34505 TIP3     5711     TIP3     OH2      OT      -0.834000       15.9994           0
     34506 TIP3     5711     TIP3     H1       HT       0.417000       1.00800           0
     34507 TIP3     5711     TIP3     H2       HT       0.417000       1.00800           0
     34508 TIP3     5712     TIP3     OH2      OT      -0.834000       15.9994           0
     34509 TIP3     5712     TIP3     H1       HT       0.417000       1.00800           0
     34510 TIP3     5712     TIP3     H2       HT       0.417000       1.00800           0
     34511 TIP3     5713     TIP3     OH2      OT      -0.834000       15.9994           0
     34512 TIP3     5713     TIP3     H1       HT       0.417000       1.00800           0
     34513 TIP3     5713     TIP3     H2       HT       0.417000       1.00800           0
     34514 TIP3     5714     TIP3     OH2      OT      -0.834000       15.9994           0
     34515 TIP3     5714     TIP3     H1       HT       0.417000       1.00800           0
     34516 TIP3     5714     TIP3     H2       HT       0.417000       1.00800           0
     34517 TIP3     5715     TIP3     OH2      OT      -0.834000       15.9994           0
     34518 TIP3     5715     TIP3     H1       HT       0.417000       1.00800           0
     34519 TIP3     5715     TIP3     H2       HT       0.417000       1.00800           0
     34520 TIP3     5716     TIP3     OH2      OT      -0.834000       15.9994           0
     34521 TIP3     5716     TIP3     H1       HT       0.417000       1.00800           0
     34522 TIP3     5716     TIP3     H2       HT       0.417000       1.00800           0
     34523 TIP3     5717     TIP3     OH2      OT      -0.834000       15.9994           0
     34524 TIP3     5717     TIP3     H1       HT       0.417000       1.00800           0
     34525 TIP3     5717     TIP3     H2       HT       0.417000       1.00800           0
     34526 TIP3     5718     TIP3     OH2      OT      -0.834000       15.9994           0
     34527 TIP3     5718     TIP3     H1       HT       0.417000       1.00800           0
     34528 TIP3     5718     TIP3     H2       HT       0.417000       1.00800           0
     34529 TIP3     5719     TIP3     OH2      OT      -0.834000       15.9994           0
     34530 TIP3     5719     TIP3     H1       HT       0.417000       1.00800           0
     34531 TIP3     5719     TIP3     H2       HT       0.417000       1.00800           0
     34532 TIP3     5720     TIP3     OH2      OT      -0.834000       15.9994           0
     34533 TIP3     5720     TIP3     H1       HT       0.417000       1.00800           0
     34534 TIP3     5720     TIP3     H2       HT       0.417000       1.00800           0
     34535 TIP3     5721     TIP3     OH2      OT      -0.834000       15.9994           0
     34536 TIP3     5721     TIP3     H1       HT       0.417000       1.00800           0
     34537 TIP3     5721     TIP3     H2       HT       0.417000       1.00800           0
     34538 TIP3     5722     TIP3     OH2      OT      -0.834000       15.9994           0
     34539 TIP3     5722     TIP3     H1       HT       0.417000       1.00800           0
     34540 TIP3     5722     TIP3     H2       HT       0.417000       1.00800           0
     34541 TIP3     5723     TIP3     OH2      OT      -0.834000       15.9994           0
     34542 TIP3     5723     TIP3     H1       HT       0.417000       1.00800           0
     34543 TIP3     5723     TIP3     H2       HT       0.417000       1.00800           0
     34544 TIP3     5724     TIP3     OH2      OT      -0.834000       15.9994           0
     34545 TIP3     5724     TIP3     H1       HT       0.417000       1.00800           0
     34546 TIP3     5724     TIP3     H2       HT       0.417000       1.00800           0
     34547 TIP3     5725     TIP3     OH2      OT      -0.834000       15.9994           0
     34548 TIP3     5725     TIP3     H1       HT       0.417000       1.00800           0
     34549 TIP3     5725     TIP3     H2       HT       0.417000       1.00800           0
     34550 TIP3     5726     TIP3     OH2      OT      -0.834000       15.9994           0
     34551 TIP3     5726     TIP3     H1       HT       0.417000       1.00800           0
     34552 TIP3     5726     TIP3     H2       HT       0.417000       1.00800           0
     34553 TIP3     5727     TIP3     OH2      OT      -0.834000       15.9994           0
     34554 TIP3     5727     TIP3     H1       HT       0.417000       1.00800           0
     34555 TIP3     5727     TIP3     H2       HT       0.417000       1.00800           0
     34556 TIP3     5728     TIP3     OH2      OT      -0.834000       15.9994           0
     34557 TIP3     5728     TIP3     H1       HT       0.417000       1.00800           0
     34558 TIP3     5728     TIP3     H2       HT       0.417000       1.00800           0
     34559 TIP3     5729     TIP3     OH2      OT      -0.834000       15.9994           0
     34560 TIP3     5729     TIP3     H1       HT       0.417000       1.00800           0
     34561 TIP3     5729     TIP3     H2       HT       0.417000       1.00800           0
     34562 TIP3     5730     TIP3     OH2      OT      -0.834000       15.9994           0
     34563 TIP3     5730     TIP3     H1       HT       0.417000       1.00800           0
     34564 TIP3     5730     TIP3     H2       HT       0.417000       1.00800           0
     34565 TIP3     5731     TIP3     OH2      OT      -0.834000       15.9994           0
     34566 TIP3     5731     TIP3     H1       HT       0.417000       1.00800           0
     34567 TIP3     5731     TIP3     H2       HT       0.417000       1.00800           0
     34568 TIP3     5732     TIP3     OH2      OT      -0.834000       15.9994           0
     34569 TIP3     5732     TIP3     H1       HT       0.417000       1.00800           0
     34570 TIP3     5732     TIP3     H2       HT       0.417000       1.00800           0
     34571 TIP3     5733     TIP3     OH2      OT      -0.834000       15.9994           0
     34572 TIP3     5733     TIP3     H1       HT       0.417000       1.00800           0
     34573 TIP3     5733     TIP3     H2       HT       0.417000       1.00800           0
     34574 TIP3     5734     TIP3     OH2      OT      -0.834000       15.9994           0
     34575 TIP3     5734     TIP3     H1       HT       0.417000       1.00800           0
     34576 TIP3     5734     TIP3     H2       HT       0.417000       1.00800           0
     34577 TIP3     5735     TIP3     OH2      OT      -0.834000       15.9994           0
     34578 TIP3     5735     TIP3     H1       HT       0.417000       1.00800           0
     34579 TIP3     5735     TIP3     H2       HT       0.417000       1.00800           0
     34580 TIP3     5736     TIP3     OH2      OT      -0.834000       15.9994           0
     34581 TIP3     5736     TIP3     H1       HT       0.417000       1.00800           0
     34582 TIP3     5736     TIP3     H2       HT       0.417000       1.00800           0
     34583 TIP3     5737     TIP3     OH2      OT      -0.834000       15.9994           0
     34584 TIP3     5737     TIP3     H1       HT       0.417000       1.00800           0
     34585 TIP3     5737     TIP3     H2       HT       0.417000       1.00800           0
     34586 TIP3     5738     TIP3     OH2      OT      -0.834000       15.9994           0
     34587 TIP3     5738     TIP3     H1       HT       0.417000       1.00800           0
     34588 TIP3     5738     TIP3     H2       HT       0.417000       1.00800           0
     34589 TIP3     5739     TIP3     OH2      OT      -0.834000       15.9994           0
     34590 TIP3     5739     TIP3     H1       HT       0.417000       1.00800           0
     34591 TIP3     5739     TIP3     H2       HT       0.417000       1.00800           0
     34592 TIP3     5740     TIP3     OH2      OT      -0.834000       15.9994           0
     34593 TIP3     5740     TIP3     H1       HT       0.417000       1.00800           0
     34594 TIP3     5740     TIP3     H2       HT       0.417000       1.00800           0
     34595 TIP3     5741     TIP3     OH2      OT      -0.834000       15.9994           0
     34596 TIP3     5741     TIP3     H1       HT       0.417000       1.00800           0
     34597 TIP3     5741     TIP3     H2       HT       0.417000       1.00800           0
     34598 TIP3     5742     TIP3     OH2      OT      -0.834000       15.9994           0
     34599 TIP3     5742     TIP3     H1       HT       0.417000       1.00800           0
     34600 TIP3     5742     TIP3     H2       HT       0.417000       1.00800           0
     34601 TIP3     5743     TIP3     OH2      OT      -0.834000       15.9994           0
     34602 TIP3     5743     TIP3     H1       HT       0.417000       1.00800           0
     34603 TIP3     5743     TIP3     H2       HT       0.417000       1.00800           0
     34604 TIP3     5744     TIP3     OH2      OT      -0.834000       15.9994           0
     34605 TIP3     5744     TIP3     H1       HT       0.417000       1.00800           0
     34606 TIP3     5744     TIP3     H2       HT       0.417000       1.00800           0
     34607 TIP3     5745     TIP3     OH2      OT      -0.834000       15.9994           0
     34608 TIP3     5745     TIP3     H1       HT       0.417000       1.00800           0
     34609 TIP3     5745     TIP3     H2       HT       0.417000       1.00800           0
     34610 TIP3     5746     TIP3     OH2      OT      -0.834000       15.9994           0
     34611 TIP3     5746     TIP3     H1       HT       0.417000       1.00800           0
     34612 TIP3     5746     TIP3     H2       HT       0.417000       1.00800           0
     34613 TIP3     5747     TIP3     OH2      OT      -0.834000       15.9994           0
     34614 TIP3     5747     TIP3     H1       HT       0.417000       1.00800           0
     34615 TIP3     5747     TIP3     H2       HT       0.417000       1.00800           0
     34616 TIP3     5748     TIP3     OH2      OT      -0.834000       15.9994           0
     34617 TIP3     5748     TIP3     H1       HT       0.417000       1.00800           0
     34618 TIP3     5748     TIP3     H2       HT       0.417000       1.00800           0
     34619 TIP3     5749     TIP3     OH2      OT      -0.834000       15.9994           0
     34620 TIP3     5749     TIP3     H1       HT       0.417000       1.00800           0
     34621 TIP3     5749     TIP3     H2       HT       0.417000       1.00800           0
     34622 TIP3     5750     TIP3     OH2      OT      -0.834000       15.9994           0
     34623 TIP3     5750     TIP3     H1       HT       0.417000       1.00800           0
     34624 TIP3     5750     TIP3     H2       HT       0.417000       1.00800           0
     34625 TIP3     5751     TIP3     OH2      OT      -0.834000       15.9994           0
     34626 TIP3     5751     TIP3     H1       HT       0.417000       1.00800           0
     34627 TIP3     5751     TIP3     H2       HT       0.417000       1.00800           0
     34628 TIP3     5752     TIP3     OH2      OT      -0.834000       15.9994           0
     34629 TIP3     5752     TIP3     H1       HT       0.417000       1.00800           0
     34630 TIP3     5752     TIP3     H2       HT       0.417000       1.00800           0
     34631 TIP3     5753     TIP3     OH2      OT      -0.834000       15.9994           0
     34632 TIP3     5753     TIP3     H1       HT       0.417000       1.00800           0
     34633 TIP3     5753     TIP3     H2       HT       0.417000       1.00800           0
     34634 TIP3     5754     TIP3     OH2      OT      -0.834000       15.9994           0
     34635 TIP3     5754     TIP3     H1       HT       0.417000       1.00800           0
     34636 TIP3     5754     TIP3     H2       HT       0.417000       1.00800           0
     34637 TIP3     5755     TIP3     OH2      OT      -0.834000       15.9994           0
     34638 TIP3     5755     TIP3     H1       HT       0.417000       1.00800           0
     34639 TIP3     5755     TIP3     H2       HT       0.417000       1.00800           0
     34640 TIP3     5756     TIP3     OH2      OT      -0.834000       15.9994           0
     34641 TIP3     5756     TIP3     H1       HT       0.417000       1.00800           0
     34642 TIP3     5756     TIP3     H2       HT       0.417000       1.00800           0
     34643 TIP3     5757     TIP3     OH2      OT      -0.834000       15.9994           0
     34644 TIP3     5757     TIP3     H1       HT       0.417000       1.00800           0
     34645 TIP3     5757     TIP3     H2       HT       0.417000       1.00800           0
     34646 TIP3     5758     TIP3     OH2      OT      -0.834000       15.9994           0
     34647 TIP3     5758     TIP3     H1       HT       0.417000       1.00800           0
     34648 TIP3     5758     TIP3     H2       HT       0.417000       1.00800           0
     34649 TIP3     5759     TIP3     OH2      OT      -0.834000       15.9994           0
     34650 TIP3     5759     TIP3     H1       HT       0.417000       1.00800           0
     34651 TIP3     5759     TIP3     H2       HT       0.417000       1.00800           0
     34652 TIP3     5760     TIP3     OH2      OT      -0.834000       15.9994           0
     34653 TIP3     5760     TIP3     H1       HT       0.417000       1.00800           0
     34654 TIP3     5760     TIP3     H2       HT       0.417000       1.00800           0
     34655 TIP3     5761     TIP3     OH2      OT      -0.834000       15.9994           0
     34656 TIP3     5761     TIP3     H1       HT       0.417000       1.00800           0
     34657 TIP3     5761     TIP3     H2       HT       0.417000       1.00800           0
     34658 TIP3     5762     TIP3     OH2      OT      -0.834000       15.9994           0
     34659 TIP3     5762     TIP3     H1       HT       0.417000       1.00800           0
     34660 TIP3     5762     TIP3     H2       HT       0.417000       1.00800           0
     34661 TIP3     5763     TIP3     OH2      OT      -0.834000       15.9994           0
     34662 TIP3     5763     TIP3     H1       HT       0.417000       1.00800           0
     34663 TIP3     5763     TIP3     H2       HT       0.417000       1.00800           0
     34664 TIP3     5764     TIP3     OH2      OT      -0.834000       15.9994           0
     34665 TIP3     5764     TIP3     H1       HT       0.417000       1.00800           0
     34666 TIP3     5764     TIP3     H2       HT       0.417000       1.00800           0
     34667 TIP3     5765     TIP3     OH2      OT      -0.834000       15.9994           0
     34668 TIP3     5765     TIP3     H1       HT       0.417000       1.00800           0
     34669 TIP3     5765     TIP3     H2       HT       0.417000       1.00800           0
     34670 TIP3     5766     TIP3     OH2      OT      -0.834000       15.9994           0
     34671 TIP3     5766     TIP3     H1       HT       0.417000       1.00800           0
     34672 TIP3     5766     TIP3     H2       HT       0.417000       1.00800           0
     34673 TIP3     5767     TIP3     OH2      OT      -0.834000       15.9994           0
     34674 TIP3     5767     TIP3     H1       HT       0.417000       1.00800           0
     34675 TIP3     5767     TIP3     H2       HT       0.417000       1.00800           0
     34676 TIP3     5768     TIP3     OH2      OT      -0.834000       15.9994           0
     34677 TIP3     5768     TIP3     H1       HT       0.417000       1.00800           0
     34678 TIP3     5768     TIP3     H2       HT       0.417000       1.00800           0
     34679 TIP3     5769     TIP3     OH2      OT      -0.834000       15.9994           0
     34680 TIP3     5769     TIP3     H1       HT       0.417000       1.00800           0
     34681 TIP3     5769     TIP3     H2       HT       0.417000       1.00800           0
     34682 TIP3     5770     TIP3     OH2      OT      -0.834000       15.9994           0
     34683 TIP3     5770     TIP3     H1       HT       0.417000       1.00800           0
     34684 TIP3     5770     TIP3     H2       HT       0.417000       1.00800           0
     34685 TIP3     5771     TIP3     OH2      OT      -0.834000       15.9994           0
     34686 TIP3     5771     TIP3     H1       HT       0.417000       1.00800           0
     34687 TIP3     5771     TIP3     H2       HT       0.417000       1.00800           0
     34688 TIP3     5772     TIP3     OH2      OT      -0.834000       15.9994           0
     34689 TIP3     5772     TIP3     H1       HT       0.417000       1.00800           0
     34690 TIP3     5772     TIP3     H2       HT       0.417000       1.00800           0
     34691 TIP3     5773     TIP3     OH2      OT      -0.834000       15.9994           0
     34692 TIP3     5773     TIP3     H1       HT       0.417000       1.00800           0
     34693 TIP3     5773     TIP3     H2       HT       0.417000       1.00800           0
     34694 IONS     1        POT      POT      POT      1.000000       39.0983           0
     34695 IONS     2        POT      POT      POT      1.000000       39.0983           0
     34696 IONS     3        POT      POT      POT      1.000000       39.0983           0
     34697 IONS     4        POT      POT      POT      1.000000       39.0983           0
     34698 IONS     5        POT      POT      POT      1.000000       39.0983           0
     34699 IONS     6        POT      POT      POT      1.000000       39.0983           0
     34700 IONS     7        POT      POT      POT      1.000000       39.0983           0
     34701 IONS     8        POT      POT      POT      1.000000       39.0983           0
     34702 IONS     9        POT      POT      POT      1.000000       39.0983           0
     34703 IONS     10       POT      POT      POT      1.000000       39.0983           0
     34704 IONS     11       POT      POT      POT      1.000000       39.0983           0
     34705 IONS     12       POT      POT      POT      1.000000       39.0983           0
     34706 IONS     13       POT      POT      POT      1.000000       39.0983           0
     34707 IONS     14       POT      POT      POT      1.000000       39.0983           0
     34708 IONS     15       POT      POT      POT      1.000000       39.0983           0
     34709 IONS     16       POT      POT      POT      1.000000       39.0983           0
     34710 IONS     17       POT      POT      POT      1.000000       39.0983           0
     34711 IONS     18       POT      POT      POT      1.000000       39.0983           0
     34712 IONS     19       POT      POT      POT      1.000000       39.0983           0
     34713 IONS     20       POT      POT      POT      1.000000       39.0983           0
     34714 IONS     21       POT      POT      POT      1.000000       39.0983           0
     34715 IONS     22       POT      POT      POT      1.000000       39.0983           0
     34716 IONS     23       POT      POT      POT      1.000000       39.0983           0
     34717 IONS     24       POT      POT      POT      1.000000       39.0983           0
     34718 IONS     25       POT      POT      POT      1.000000       39.0983           0
     34719 IONS     26       POT      POT      POT      1.000000       39.0983           0
     34720 IONS     27       POT      POT      POT      1.000000       39.0983           0
     34721 IONS     28       POT      POT      POT      1.000000       39.0983           0
     34722 IONS     29       POT      POT      POT      1.000000       39.0983           0
     34723 IONS     30       POT      POT      POT      1.000000       39.0983           0
     34724 IONS     31       POT      POT      POT      1.000000       39.0983           0
     34725 IONS     32       POT      POT      POT      1.000000       39.0983           0
     34726 IONS     33       POT      POT      POT      1.000000       39.0983           0
     34727 IONS     34       POT      POT      POT      1.000000       39.0983           0
     34728 IONS     35       POT      POT      POT      1.000000       39.0983           0
     34729 IONS     36       POT      POT      POT      1.000000       39.0983           0
     34730 IONS     37       CLA      CLA      CLA     -1.000000       35.4500           0
     34731 IONS     38       CLA      CLA      CLA     -1.000000       35.4500           0
     34732 IONS     39       CLA      CLA      CLA     -1.000000       35.4500           0
     34733 IONS     40       CLA      CLA      CLA     -1.000000       35.4500           0
     34734 IONS     41       CLA      CLA      CLA     -1.000000       35.4500           0
     34735 IONS     42       CLA      CLA      CLA     -1.000000       35.4500           0
     34736 IONS     43       CLA      CLA      CLA     -1.000000       35.4500           0
     34737 IONS     44       CLA      CLA      CLA     -1.000000       35.4500           0
     34738 IONS     45       CLA      CLA      CLA     -1.000000       35.4500           0
     34739 IONS     46       CLA      CLA      CLA     -1.000000       35.4500           0
     34740 IONS     47       CLA      CLA      CLA     -1.000000       35.4500           0
     34741 IONS     48       CLA      CLA      CLA     -1.000000       35.4500           0
     34742 IONS     49       CLA      CLA      CLA     -1.000000       35.4500           0
     34743 IONS     50       CLA      CLA      CLA     -1.000000       35.4500           0

     34559 !NBOND: bonds
         2         1         3         1         4         1         7         5
        10         7        13        10        16        13        19        16
         1         5        23         5         5         6         7         8
         7         9        10        11        10        12        13        14
        13        15        16        17        16        18        19        20
        19        21        19        22        23        25        23        24
        27        26        28        26        29        26        32        30
        35        32        38        35        41        38        44        41
        26        30        48        30        30        31        32        33
        32        34        35        36        35        37        38        39
        38        40        41        42        41        43        44        45
        44        46        44        47        48        50        48        49
        52        51        53        51        54        51        57        55
        60        57        63        60        66        63        68        66
        72        68        51        55        75        55        55        56
        57        58        57        59        60        61        60        62
        63        64        63        65        66        67        69        70
        69        71        72        73        72        74        68        69
        75        77        75        76        79        78        80        78
        92        84        78        84        84        86        86        89
        89        81        78        81        85        84        90        89
        91        89        82        81        83        81        87        86
        88        86        92        94        92        93        96        95
        97        95        98        95       101        99       104       101
       107       104       110       107       113       110        95        99
       117        99        99       100       101       102       101       103
       104       105       104       106       107       108       107       109
       110       111       110       112       113       114       113       115
       113       116       117       119       117       118       121       120
       122       120       134       126       120       126       126       128
       128       131       131       123       120       123       127       126
       132       131       133       131       124       123       125       123
       129       128       130       128       134       136       134       135
       137       141       137       145       137       149       141       142
       141       143       141       144       145       146       145       147
       145       148       149       150       149       151       149       152
       137       138       138       139       138       140       138       153
       153       154       153       155       153       159       160       161
       159       156       156       160       156       157       156       158
       161       162       161       163       161       164       164       165
       164       172       164       166       172       173       172       174
       172       175       166       167       167       169       167       168
       169       170       169       171       169       181       181       182
       181       183       181       184       184       185       184       186
       184       187       187       188       187       189       187       190
       190       191       190       192       190       193       193       194
       193       195       193       196       196       197       196       198
       196       199       199       200       199       201       201       202
       201       203       203       204       203       205       203       206
       206       207       206       208       206       209       209       210
       209       211       209       212       212       213       212       214
       212       215       215       216       215       217       215       218
       218       219       218       220       218       221       221       222
       221       223       221       224       224       225       224       226
       224       227       175       176       176       178       176       177
       178       179       178       180       178       228       228       229
       228       230       228       231       231       232       231       233
       231       234       234       235       234       236       234       237
       237       238       237       239       237       240       240       241
       240       242       240       243       243       244       243       245
       243       246       246       247       246       248       246       249
       249       250       249       251       249       252       252       253
       252       254       252       255       255       256       255       257
       255       258       258       259       258       260       258       261
       261       262       261       263       261       264       264       265
       264       266       264       267       267       268       267       269
       267       270       271       275       271       279       271       283
       275       276       275       277       275       278       279       280
       279       281       279       282       283       284       283       285
       283       286       271       272       272       273       272       274
       272       287       287       288       287       289       287       293
       294       295       293       290       290       294       290       291
       290       292       295       296       295       297       295       298
       298       299       298       306       298       300       306       307
       306       308       306       309       300       301       301       303
       301       302       303       304       303       305       303       315
       315       316       315       317       315       318       318       319
       318       320       318       321       321       322       321       323
       321       324       324       325       324       326       324       327
       327       328       327       329       327       330       330       331
       330       332       330       333       333       334       333       335
       335       336       335       337       337       338       337       339
       337       340       340       341       340       342       340       343
       343       344       343       345       343       346       346       347
       346       348       346       349       349       350       349       351
       349       352       352       353       352       354       352       355
       355       356       355       357       355       358       358       359
       358       360       358       361       309       310       310       312
       310       311       312       313       312       314       312       362
       362       363       362       364       362       365       365       366
       365       367       365       368       368       369       368       370
       368       371       371       372       371       373       371       374
       374       375       374       376       374       377       377       378
       377       379       377       380       380       381       380       382
       380       383       383       384       383       385       383       386
       386       387       386       388       386       389       389       390
       389       391       389       392       392       393       392       394
       392       395       395       396       395       397       395       398
       398       399       398       400       398       401       401       402
       401       403       401       404       405       409       405       413
       405       417       409       410       409       411       409       412
       413       414       413       415       413       416       417       418
       417       419       417       420       405       406       406       407
       406       408       406       421       421       422       421       423
       421       427       428       429       427       424       424       428
       424       425       424       426       429       430       429       431
       429       432       432       433       432       440       432       434
       440       441       440       442       440       443       434       435
       435       437       435       436       437       438       437       439
       437       449       449       450       449       451       449       452
       452       453       452       454       452       455       455       456
       455       457       455       458       458       459       458       460
       458       461       461       462       461       463       461       464
       464       465       464       466       464       467       467       468
       467       469       469       470       469       471       471       472
       471       473       471       474       474       475       474       476
       474       477       477       478       477       479       477       480
       480       481       480       482       480       483       483       484
       483       485       483       486       486       487       486       488
       486       489       489       490       489       491       489       492
       492       493       492       494       492       495       443       444
       444       446       444       445       446       447       446       448
       446       496       496       497       496       498       496       499
       499       500       499       501       499       502       502       503
       502       504       502       505       505       506       505       507
       505       508       508       509       508       510       508       511
       511       512       511       513       511       514       514       515
       514       516       514       517       517       518       517       519
       517       520       520       521       520       522       520       523
       523       524       523       525       523       526       526       527
       526       528       526       529       529       530       529       531
       529       532       532       533       532       534       532       535
       535       536       535       537       535       538       539       543
       539       547       539       551       543       544       543       545
       543       546       547       548       547       549       547       550
       551       552       551       553       551       554       539       540
       540       541       540       542       540       555       555       556
       555       557       555       561       562       563       561       558
       558       562       558       559       558       560       563       564
       563       565       563       566       566       567       566       574
       566       568       574       575       574       576       574       577
       568       569       569       571       569       570       571       572
       571       573       571       583       583       584       583       585
       583       586       586       587       586       588       586       589
       589       590       589       591       589       592       592       593
       592       594       592       595       595       596       595       597
       595       598       598       599       598       600       598       601
       601       602       601       603       603       604       603       605
       605       606       605       607       605       608       608       609
       608       610       608       611       611       612       611       613
       611       614       614       615       614       616       614       617
       617       618       617       619       617       620       620       621
       620       622       620       623       623       624       623       625
       623       626       626       627       626       628       626       629
       577       578       578       580       578       579       580       581
       580       582       580       630       630       631       630       632
       630       633       633       634       633       635       633       636
       636       637       636       638       636       639       639       640
       639       641       639       642       642       643       642       644
       642       645       645       646       645       647       645       648
       648       649       648       650       648       651       651       652
       651       653       651       654       654       655       654       656
       654       657       657       658       657       659       657       660
       660       661       660       662       660       663       663       664
       663       665       663       666       666       667       666       668
       666       669       669       670       669       671       669       672
       673       677       673       681       673       685       677       678
       677       679       677       680       681       682       681       683
       681       684       685       686       685       687       685       688
       673       674       674       675       674       676       674       689
       689       690       689       691       689       695       696       697
       695       692       692       696       692       693       692       694
       697       698       697       699       697       700       700       701
       700       708       700       702       708       709       708       710
       708       711       702       703       703       705       703       704
       705       706       705       707       705       717       717       718
       717       719       717       720       720       721       720       722
       720       723       723       724       723       725       723       726
       726       727       726       728       726       729       729       730
       729       731       729       732       732       733       732       734
       732       735       735       736       735       737       737       738
       737       739       739       740       739       741       739       742
       742       743       742       744       742       745       745       746
       745       747       745       748       748       749       748       750
       748       751       751       752       751       753       751       754
       754       755       754       756       754       757       757       758
       757       759       757       760       760       761       760       762
       760       763       711       712       712       714       712       713
       714       715       714       716       714       764       764       765
       764       766       764       767       767       768       767       769
       767       770       770       771       770       772       770       773
       773       774       773       775       773       776       776       777
       776       778       776       779       779       780       779       781
       779       782       782       783       782       784       782       785
       785       786       785       787       785       788       788       789
       788       790       788       791       791       792       791       793
       791       794       794       795       794       796       794       797
       797       798       797       799       797       800       800       801
       800       802       800       803       803       804       803       805
       803       806       807       808       807       809       807       810
       807       811       815       813       813       811       813       814
       811       812       811       816       824       823       816       817
       816       818       816       822       822       819       819       823
       819       820       819       821       824       825       824       826
       824       827       827       828       827       835       827       829
       835       836       835       837       835       838       829       830
       830       832       830       831       832       833       832       834
       832       844       844       845       844       846       844       847
       847       848       847       849       847       850       850       851
       850       852       850       853       853       854       853       855
       853       856       856       857       856       858       856       859
       859       860       859       861       859       862       862       863
       862       864       864       865       864       866       866       867
       866       868       866       869       869       870       869       871
       869       872       872       873       872       874       872       875
       875       876       875       877       875       878       878       879
       878       880       878       881       881       882       881       883
       881       884       884       885       884       886       884       887
       887       888       887       889       887       890       838       839
       839       841       839       840       841       842       841       843
       841       891       891       892       891       893       891       894
       894       895       894       896       894       897       897       898
       897       899       897       900       900       901       900       902
       900       903       903       904       903       905       903       906
       906       907       906       908       906       909       909       910
       909       911       909       912       912       913       912       914
       912       915       915       916       915       917       915       918
       918       919       918       920       918       921       921       922
       921       923       921       924       924       925       924       926
       924       927       927       928       927       929       927       930
       930       931       930       932       930       933       934       938
       934       942       934       946       938       939       938       940
       938       941       942       943       942       944       942       945
       946       947       946       948       946       949       934       935
       935       936       935       937       935       950       950       951
       950       952       950       956       957       958       956       953
       953       957       953       954       953       955       958       959
       958       960       958       961       961       962       961       969
       961       963       969       970       969       971       969       972
       963       964       964       966       964       965       966       967
       966       968       966       978       978       979       978       980
       978       981       981       982       981       983       981       984
       984       985       984       986       984       987       987       988
       987       989       987       990       990       991       990       992
       990       993       993       994       993       995       993       996
       996       997       996       998       998       999       998      1000
      1000      1001      1000      1002      1000      1003      1003      1004
      1003      1005      1003      1006      1006      1007      1006      1008
      1006      1009      1009      1010      1009      1011      1009      1012
      1012      1013      1012      1014      1012      1015      1015      1016
      1015      1017      1015      1018      1018      1019      1018      1020
      1018      1021      1021      1022      1021      1023      1021      1024
       972       973       973       975       973       974       975       976
       975       977       975      1025      1025      1026      1025      1027
      1025      1028      1028      1029      1028      1030      1028      1031
      1031      1032      1031      1033      1031      1034      1034      1035
      1034      1036      1034      1037      1037      1038      1037      1039
      1037      1040      1040      1041      1040      1042      1040      1043
      1043      1044      1043      1045      1043      1046      1046      1047
      1046      1048      1046      1049      1049      1050      1049      1051
      1049      1052      1052      1053      1052      1054      1052      1055
      1055      1056      1055      1057      1055      1058      1058      1059
      1058      1060      1058      1061      1061      1062      1061      1063
      1061      1064      1064      1065      1064      1066      1064      1067
      1068      1069      1068      1070      1068      1071      1068      1072
      1076      1074      1074      1072      1074      1075      1072      1073
      1072      1077      1085      1084      1077      1078      1077      1079
      1077      1083      1083      1080      1080      1084      1080      1081
      1080      1082      1085      1086      1085      1087      1085      1088
      1088      1089      1088      1096      1088      1090      1096      1097
      1096      1098      1096      1099      1090      1091      1091      1093
      1091      1092      1093      1094      1093      1095      1093      1105
      1105      1106      1105      1107      1105      1108      1108      1109
      1108      1110      1108      1111      1111      1112      1111      1113
      1111      1114      1114      1115      1114      1116      1114      1117
      1117      1118      1117      1119      1117      1120      1120      1121
      1120      1122      1120      1123      1123      1124      1123      1125
      1125      1126      1125      1127      1127      1128      1127      1129
      1127      1130      1130      1131      1130      1132      1130      1133
      1133      1134      1133      1135      1133      1136      1136      1137
      1136      1138      1136      1139      1139      1140      1139      1141
      1139      1142      1142      1143      1142      1144      1142      1145
      1145      1146      1145      1147      1145      1148      1148      1149
      1148      1150      1148      1151      1099      1100      1100      1102
      1100      1101      1102      1103      1102      1104      1102      1152
      1152      1153      1152      1154      1152      1155      1155      1156
      1155      1157      1155      1158      1158      1159      1158      1160
      1158      1161      1161      1162      1161      1163      1161      1164
      1164      1165      1164      1166      1164      1167      1167      1168
      1167      1169      1167      1170      1170      1171      1170      1172
      1170      1173      1173      1174      1173      1175      1173      1176
      1176      1177      1176      1178      1176      1179      1179      1180
      1179      1181      1179      1182      1182      1183      1182      1184
      1182      1185      1185      1186      1185      1187      1185      1188
      1188      1189      1188      1190      1188      1191      1191      1192
      1191      1193      1191      1194      1195      1199      1195      1203
      1195      1207      1199      1200      1199      1201      1199      1202
      1203      1204      1203      1205      1203      1206      1207      1208
      1207      1209      1207      1210      1195      1196      1196      1197
      1196      1198      1196      1211      1211      1212      1211      1213
      1211      1217      1218      1219      1217      1214      1214      1218
      1214      1215      1214      1216      1219      1220      1219      1221
      1219      1222      1222      1223      1222      1230      1222      1224
      1230      1231      1230      1232      1230      1233      1224      1225
      1225      1227      1225      1226      1227      1228      1227      1229
      1227      1239      1239      1240      1239      1241      1239      1242
      1242      1243      1242      1244      1242      1245      1245      1246
      1245      1247      1245      1248      1248      1249      1248      1250
      1248      1251      1251      1252      1251      1253      1251      1254
      1254      1255      1254      1256      1254      1257      1257      1258
      1257      1259      1259      1260      1259      1261      1261      1262
      1261      1263      1261      1264      1264      1265      1264      1266
      1264      1267      1267      1268      1267      1269      1267      1270
      1270      1271      1270      1272      1270      1273      1273      1274
      1273      1275      1273      1276      1276      1277      1276      1278
      1276      1279      1279      1280      1279      1281      1279      1282
      1282      1283      1282      1284      1282      1285      1233      1234
      1234      1236      1234      1235      1236      1237      1236      1238
      1236      1286      1286      1287      1286      1288      1286      1289
      1289      1290      1289      1291      1289      1292      1292      1293
      1292      1294      1292      1295      1295      1296      1295      1297
      1295      1298      1298      1299      1298      1300      1298      1301
      1301      1302      1301      1303      1301      1304      1304      1305
      1304      1306      1304      1307      1307      1308      1307      1309
      1307      1310      1310      1311      1310      1312      1310      1313
      1313      1314      1313      1315      1313      1316      1316      1317
      1316      1318      1316      1319      1319      1320      1319      1321
      1319      1322      1322      1323      1322      1324      1322      1325
      1325      1326      1325      1327      1325      1328      1329      1333
      1329      1337      1329      1341      1333      1334      1333      1335
      1333      1336      1337      1338      1337      1339      1337      1340
      1341      1342      1341      1343      1341      1344      1329      1330
      1330      1331      1330      1332      1330      1345      1345      1346
      1345      1347      1345      1351      1352      1353      1351      1348
      1348      1352      1348      1349      1348      1350      1353      1354
      1353      1355      1353      1356      1356      1357      1356      1364
      1356      1358      1364      1365      1364      1366      1364      1367
      1358      1359      1359      1361      1359      1360      1361      1362
      1361      1363      1361      1373      1373      1374      1373      1375
      1373      1376      1376      1377      1376      1378      1376      1379
      1379      1380      1379      1381      1379      1382      1382      1383
      1382      1384      1382      1385      1385      1386      1385      1387
      1385      1388      1388      1389      1388      1390      1388      1391
      1391      1392      1391      1393      1393      1394      1393      1395
      1395      1396      1395      1397      1395      1398      1398      1399
      1398      1400      1398      1401      1401      1402      1401      1403
      1401      1404      1404      1405      1404      1406      1404      1407
      1407      1408      1407      1409      1407      1410      1410      1411
      1410      1412      1410      1413      1413      1414      1413      1415
      1413      1416      1416      1417      1416      1418      1416      1419
      1367      1368      1368      1370      1368      1369      1370      1371
      1370      1372      1370      1420      1420      1421      1420      1422
      1420      1423      1423      1424      1423      1425      1423      1426
      1426      1427      1426      1428      1426      1429      1429      1430
      1429      1431      1429      1432      1432      1433      1432      1434
      1432      1435      1435      1436      1435      1437      1435      1438
      1438      1439      1438      1440      1438      1441      1441      1442
      1441      1443      1441      1444      1444      1445      1444      1446
      1444      1447      1447      1448      1447      1449      1447      1450
      1450      1451      1450      1452      1450      1453      1453      1454
      1453      1455      1453      1456      1456      1457      1456      1458
      1456      1459      1459      1460      1459      1461      1459      1462
      1463      1467      1463      1471      1463      1475      1467      1468
      1467      1469      1467      1470      1471      1472      1471      1473
      1471      1474      1475      1476      1475      1477      1475      1478
      1463      1464      1464      1465      1464      1466      1464      1479
      1479      1480      1479      1481      1479      1485      1486      1487
      1485      1482      1482      1486      1482      1483      1482      1484
      1487      1488      1487      1489      1487      1490      1490      1491
      1490      1498      1490      1492      1498      1499      1498      1500
      1498      1501      1492      1493      1493      1495      1493      1494
      1495      1496      1495      1497      1495      1507      1507      1508
      1507      1509      1507      1510      1510      1511      1510      1512
      1510      1513      1513      1514      1513      1515      1513      1516
      1516      1517      1516      1518      1516      1519      1519      1520
      1519      1521      1519      1522      1522      1523      1522      1524
      1522      1525      1525      1526      1525      1527      1527      1528
      1527      1529      1529      1530      1529      1531      1529      1532
      1532      1533      1532      1534      1532      1535      1535      1536
      1535      1537      1535      1538      1538      1539      1538      1540
      1538      1541      1541      1542      1541      1543      1541      1544
      1544      1545      1544      1546      1544      1547      1547      1548
      1547      1549      1547      1550      1550      1551      1550      1552
      1550      1553      1501      1502      1502      1504      1502      1503
      1504      1505      1504      1506      1504      1554      1554      1555
      1554      1556      1554      1557      1557      1558      1557      1559
      1557      1560      1560      1561      1560      1562      1560      1563
      1563      1564      1563      1565      1563      1566      1566      1567
      1566      1568      1566      1569      1569      1570      1569      1571
      1569      1572      1572      1573      1572      1574      1572      1575
      1575      1576      1575      1577      1575      1578      1578      1579
      1578      1580      1578      1581      1581      1582      1581      1583
      1581      1584      1584      1585      1584      1586      1584      1587
      1587      1588      1587      1589      1587      1590      1590      1591
      1590      1592      1590      1593      1593      1594      1593      1595
      1593      1596      1597      1601      1597      1605      1597      1609
      1601      1602      1601      1603      1601      1604      1605      1606
      1605      1607      1605      1608      1609      1610      1609      1611
      1609      1612      1597      1598      1598      1599      1598      1600
      1598      1613      1613      1614      1613      1615      1613      1619
      1620      1621      1619      1616      1616      1620      1616      1617
      1616      1618      1621      1622      1621      1623      1621      1624
      1624      1625      1624      1632      1624      1626      1632      1633
      1632      1634      1632      1635      1626      1627      1627      1629
      1627      1628      1629      1630      1629      1631      1629      1641
      1641      1642      1641      1643      1641      1644      1644      1645
      1644      1646      1644      1647      1647      1648      1647      1649
      1647      1650      1650      1651      1650      1652      1650      1653
      1653      1654      1653      1655      1653      1656      1656      1657
      1656      1658      1656      1659      1659      1660      1659      1661
      1661      1662      1661      1663      1663      1664      1663      1665
      1663      1666      1666      1667      1666      1668      1666      1669
      1669      1670      1669      1671      1669      1672      1672      1673
      1672      1674      1672      1675      1675      1676      1675      1677
      1675      1678      1678      1679      1678      1680      1678      1681
      1681      1682      1681      1683      1681      1684      1684      1685
      1684      1686      1684      1687      1635      1636      1636      1638
      1636      1637      1638      1639      1638      1640      1638      1688
      1688      1689      1688      1690      1688      1691      1691      1692
      1691      1693      1691      1694      1694      1695      1694      1696
      1694      1697      1697      1698      1697      1699      1697      1700
      1700      1701      1700      1702      1700      1703      1703      1704
      1703      1705      1703      1706      1706      1707      1706      1708
      1706      1709      1709      1710      1709      1711      1709      1712
      1712      1713      1712      1714      1712      1715      1715      1716
      1715      1717      1715      1718      1718      1719      1718      1720
      1718      1721      1721      1722      1721      1723      1721      1724
      1724      1725      1724      1726      1724      1727      1727      1728
      1727      1729      1727      1730      1731      1735      1731      1739
      1731      1743      1735      1736      1735      1737      1735      1738
      1739      1740      1739      1741      1739      1742      1743      1744
      1743      1745      1743      1746      1731      1732      1732      1733
      1732      1734      1732      1747      1747      1748      1747      1749
      1747      1753      1754      1755      1753      1750      1750      1754
      1750      1751      1750      1752      1755      1756      1755      1757
      1755      1758      1758      1759      1758      1766      1758      1760
      1766      1767      1766      1768      1766      1769      1760      1761
      1761      1763      1761      1762      1763      1764      1763      1765
      1763      1775      1775      1776      1775      1777      1775      1778
      1778      1779      1778      1780      1778      1781      1781      1782
      1781      1783      1781      1784      1784      1785      1784      1786
      1784      1787      1787      1788      1787      1789      1787      1790
      1790      1791      1790      1792      1790      1793      1793      1794
      1793      1795      1795      1796      1795      1797      1797      1798
      1797      1799      1797      1800      1800      1801      1800      1802
      1800      1803      1803      1804      1803      1805      1803      1806
      1806      1807      1806      1808      1806      1809      1809      1810
      1809      1811      1809      1812      1812      1813      1812      1814
      1812      1815      1815      1816      1815      1817      1815      1818
      1818      1819      1818      1820      1818      1821      1769      1770
      1770      1772      1770      1771      1772      1773      1772      1774
      1772      1822      1822      1823      1822      1824      1822      1825
      1825      1826      1825      1827      1825      1828      1828      1829
      1828      1830      1828      1831      1831      1832      1831      1833
      1831      1834      1834      1835      1834      1836      1834      1837
      1837      1838      1837      1839      1837      1840      1840      1841
      1840      1842      1840      1843      1843      1844      1843      1845
      1843      1846      1846      1847      1846      1848      1846      1849
      1849      1850      1849      1851      1849      1852      1852      1853
      1852      1854      1852      1855      1855      1856      1855      1857
      1855      1858      1858      1859      1858      1860      1858      1861
      1861      1862      1861      1863      1861      1864      1865      1869
      1865      1873      1865      1877      1869      1870      1869      1871
      1869      1872      1873      1874      1873      1875      1873      1876
      1877      1878      1877      1879      1877      1880      1865      1866
      1866      1867      1866      1868      1866      1881      1881      1882
      1881      1883      1881      1887      1888      1889      1887      1884
      1884      1888      1884      1885      1884      1886      1889      1890
      1889      1891      1889      1892      1892      1893      1892      1900
      1892      1894      1900      1901      1900      1902      1900      1903
      1894      1895      1895      1897      1895      1896      1897      1898
      1897      1899      1897      1909      1909      1910      1909      1911
      1909      1912      1912      1913      1912      1914      1912      1915
      1915      1916      1915      1917      1915      1918      1918      1919
      1918      1920      1918      1921      1921      1922      1921      1923
      1921      1924      1924      1925      1924      1926      1924      1927
      1927      1928      1927      1929      1929      1930      1929      1931
      1931      1932      1931      1933      1931      1934      1934      1935
      1934      1936      1934      1937      1937      1938      1937      1939
      1937      1940      1940      1941      1940      1942      1940      1943
      1943      1944      1943      1945      1943      1946      1946      1947
      1946      1948      1946      1949      1949      1950      1949      1951
      1949      1952      1952      1953      1952      1954      1952      1955
      1903      1904      1904      1906      1904      1905      1906      1907
      1906      1908      1906      1956      1956      1957      1956      1958
      1956      1959      1959      1960      1959      1961      1959      1962
      1962      1963      1962      1964      1962      1965      1965      1966
      1965      1967      1965      1968      1968      1969      1968      1970
      1968      1971      1971      1972      1971      1973      1971      1974
      1974      1975      1974      1976      1974      1977      1977      1978
      1977      1979      1977      1980      1980      1981      1980      1982
      1980      1983      1983      1984      1983      1985      1983      1986
      1986      1987      1986      1988      1986      1989      1989      1990
      1989      1991      1989      1992      1992      1993      1992      1994
      1992      1995      1995      1996      1995      1997      1995      1998
      1999      2003      1999      2007      1999      2011      2003      2004
      2003      2005      2003      2006      2007      2008      2007      2009
      2007      2010      2011      2012      2011      2013      2011      2014
      1999      2000      2000      2001      2000      2002      2000      2015
      2015      2016      2015      2017      2015      2021      2022      2023
      2021      2018      2018      2022      2018      2019      2018      2020
      2023      2024      2023      2025      2023      2026      2026      2027
      2026      2034      2026      2028      2034      2035      2034      2036
      2034      2037      2028      2029      2029      2031      2029      2030
      2031      2032      2031      2033      2031      2043      2043      2044
      2043      2045      2043      2046      2046      2047      2046      2048
      2046      2049      2049      2050      2049      2051      2049      2052
      2052      2053      2052      2054      2052      2055      2055      2056
      2055      2057      2055      2058      2058      2059      2058      2060
      2058      2061      2061      2062      2061      2063      2063      2064
      2063      2065      2065      2066      2065      2067      2065      2068
      2068      2069      2068      2070      2068      2071      2071      2072
      2071      2073      2071      2074      2074      2075      2074      2076
      2074      2077      2077      2078      2077      2079      2077      2080
      2080      2081      2080      2082      2080      2083      2083      2084
      2083      2085      2083      2086      2086      2087      2086      2088
      2086      2089      2037      2038      2038      2040      2038      2039
      2040      2041      2040      2042      2040      2090      2090      2091
      2090      2092      2090      2093      2093      2094      2093      2095
      2093      2096      2096      2097      2096      2098      2096      2099
      2099      2100      2099      2101      2099      2102      2102      2103
      2102      2104      2102      2105      2105      2106      2105      2107
      2105      2108      2108      2109      2108      2110      2108      2111
      2111      2112      2111      2113      2111      2114      2114      2115
      2114      2116      2114      2117      2117      2118      2117      2119
      2117      2120      2120      2121      2120      2122      2120      2123
      2123      2124      2123      2125      2123      2126      2126      2127
      2126      2128      2126      2129      2129      2130      2129      2131
      2129      2132      2133      2134      2133      2135      2133      2136
      2133      2137      2141      2139      2139      2137      2139      2140
      2137      2138      2137      2142      2150      2149      2142      2143
      2142      2144      2142      2148      2148      2145      2145      2149
      2145      2146      2145      2147      2150      2151      2150      2152
      2150      2153      2153      2154      2153      2161      2153      2155
      2161      2162      2161      2163      2161      2164      2155      2156
      2156      2158      2156      2157      2158      2159      2158      2160
      2158      2170      2170      2171      2170      2172      2170      2173
      2173      2174      2173      2175      2173      2176      2176      2177
      2176      2178      2176      2179      2179      2180      2179      2181
      2179      2182      2182      2183      2182      2184      2182      2185
      2185      2186      2185      2187      2185      2188      2188      2189
      2188      2190      2190      2191      2190      2192      2192      2193
      2192      2194      2192      2195      2195      2196      2195      2197
      2195      2198      2198      2199      2198      2200      2198      2201
      2201      2202      2201      2203      2201      2204      2204      2205
      2204      2206      2204      2207      2207      2208      2207      2209
      2207      2210      2210      2211      2210      2212      2210      2213
      2213      2214      2213      2215      2213      2216      2164      2165
      2165      2167      2165      2166      2167      2168      2167      2169
      2167      2217      2217      2218      2217      2219      2217      2220
      2220      2221      2220      2222      2220      2223      2223      2224
      2223      2225      2223      2226      2226      2227      2226      2228
      2226      2229      2229      2230      2229      2231      2229      2232
      2232      2233      2232      2234      2232      2235      2235      2236
      2235      2237      2235      2238      2238      2239      2238      2240
      2238      2241      2241      2242      2241      2243      2241      2244
      2244      2245      2244      2246      2244      2247      2247      2248
      2247      2249      2247      2250      2250      2251      2250      2252
      2250      2253      2253      2254      2253      2255      2253      2256
      2256      2257      2256      2258      2256      2259      2260      2261
      2260      2262      2260      2263      2260      2264      2268      2266
      2266      2264      2266      2267      2264      2265      2264      2269
      2277      2276      2269      2270      2269      2271      2269      2275
      2275      2272      2272      2276      2272      2273      2272      2274
      2277      2278      2277      2279      2277      2280      2280      2281
      2280      2288      2280      2282      2288      2289      2288      2290
      2288      2291      2282      2283      2283      2285      2283      2284
      2285      2286      2285      2287      2285      2297      2297      2298
      2297      2299      2297      2300      2300      2301      2300      2302
      2300      2303      2303      2304      2303      2305      2303      2306
      2306      2307      2306      2308      2306      2309      2309      2310
      2309      2311      2309      2312      2312      2313      2312      2314
      2312      2315      2315      2316      2315      2317      2317      2318
      2317      2319      2319      2320      2319      2321      2319      2322
      2322      2323      2322      2324      2322      2325      2325      2326
      2325      2327      2325      2328      2328      2329      2328      2330
      2328      2331      2331      2332      2331      2333      2331      2334
      2334      2335      2334      2336      2334      2337      2337      2338
      2337      2339      2337      2340      2340      2341      2340      2342
      2340      2343      2291      2292      2292      2294      2292      2293
      2294      2295      2294      2296      2294      2344      2344      2345
      2344      2346      2344      2347      2347      2348      2347      2349
      2347      2350      2350      2351      2350      2352      2350      2353
      2353      2354      2353      2355      2353      2356      2356      2357
      2356      2358      2356      2359      2359      2360      2359      2361
      2359      2362      2362      2363      2362      2364      2362      2365
      2365      2366      2365      2367      2365      2368      2368      2369
      2368      2370      2368      2371      2371      2372      2371      2373
      2371      2374      2374      2375      2374      2376      2374      2377
      2377      2378      2377      2379      2377      2380      2380      2381
      2380      2382      2380      2383      2383      2384      2383      2385
      2383      2386      2387      2391      2387      2395      2387      2399
      2391      2392      2391      2393      2391      2394      2395      2396
      2395      2397      2395      2398      2399      2400      2399      2401
      2399      2402      2387      2388      2388      2389      2388      2390
      2388      2403      2403      2404      2403      2405      2403      2409
      2410      2411      2409      2406      2406      2410      2406      2407
      2406      2408      2411      2412      2411      2413      2411      2414
      2414      2415      2414      2422      2414      2416      2422      2423
      2422      2424      2422      2425      2416      2417      2417      2419
      2417      2418      2419      2420      2419      2421      2419      2431
      2431      2432      2431      2433      2431      2434      2434      2435
      2434      2436      2434      2437      2437      2438      2437      2439
      2437      2440      2440      2441      2440      2442      2440      2443
      2443      2444      2443      2445      2443      2446      2446      2447
      2446      2448      2446      2449      2449      2450      2449      2451
      2451      2452      2451      2453      2453      2454      2453      2455
      2453      2456      2456      2457      2456      2458      2456      2459
      2459      2460      2459      2461      2459      2462      2462      2463
      2462      2464      2462      2465      2465      2466      2465      2467
      2465      2468      2468      2469      2468      2470      2468      2471
      2471      2472      2471      2473      2471      2474      2474      2475
      2474      2476      2474      2477      2425      2426      2426      2428
      2426      2427      2428      2429      2428      2430      2428      2478
      2478      2479      2478      2480      2478      2481      2481      2482
      2481      2483      2481      2484      2484      2485      2484      2486
      2484      2487      2487      2488      2487      2489      2487      2490
      2490      2491      2490      2492      2490      2493      2493      2494
      2493      2495      2493      2496      2496      2497      2496      2498
      2496      2499      2499      2500      2499      2501      2499      2502
      2502      2503      2502      2504      2502      2505      2505      2506
      2505      2507      2505      2508      2508      2509      2508      2510
      2508      2511      2511      2512      2511      2513      2511      2514
      2514      2515      2514      2516      2514      2517      2517      2518
      2517      2519      2517      2520      2521      2525      2521      2529
      2521      2533      2525      2526      2525      2527      2525      2528
      2529      2530      2529      2531      2529      2532      2533      2534
      2533      2535      2533      2536      2521      2522      2522      2523
      2522      2524      2522      2537      2537      2538      2537      2539
      2537      2543      2544      2545      2543      2540      2540      2544
      2540      2541      2540      2542      2545      2546      2545      2547
      2545      2548      2548      2549      2548      2556      2548      2550
      2556      2557      2556      2558      2556      2559      2550      2551
      2551      2553      2551      2552      2553      2554      2553      2555
      2553      2565      2565      2566      2565      2567      2565      2568
      2568      2569      2568      2570      2568      2571      2571      2572
      2571      2573      2571      2574      2574      2575      2574      2576
      2574      2577      2577      2578      2577      2579      2577      2580
      2580      2581      2580      2582      2580      2583      2583      2584
      2583      2585      2585      2586      2585      2587      2587      2588
      2587      2589      2587      2590      2590      2591      2590      2592
      2590      2593      2593      2594      2593      2595      2593      2596
      2596      2597      2596      2598      2596      2599      2599      2600
      2599      2601      2599      2602      2602      2603      2602      2604
      2602      2605      2605      2606      2605      2607      2605      2608
      2608      2609      2608      2610      2608      2611      2559      2560
      2560      2562      2560      2561      2562      2563      2562      2564
      2562      2612      2612      2613      2612      2614      2612      2615
      2615      2616      2615      2617      2615      2618      2618      2619
      2618      2620      2618      2621      2621      2622      2621      2623
      2621      2624      2624      2625      2624      2626      2624      2627
      2627      2628      2627      2629      2627      2630      2630      2631
      2630      2632      2630      2633      2633      2634      2633      2635
      2633      2636      2636      2637      2636      2638      2636      2639
      2639      2640      2639      2641      2639      2642      2642      2643
      2642      2644      2642      2645      2645      2646      2645      2647
      2645      2648      2648      2649      2648      2650      2648      2651
      2651      2652      2651      2653      2651      2654      2655      2656
      2655      2657      2655      2658      2655      2659      2663      2661
      2661      2659      2661      2662      2659      2660      2659      2664
      2672      2671      2664      2665      2664      2666      2664      2670
      2670      2667      2667      2671      2667      2668      2667      2669
      2672      2673      2672      2674      2672      2675      2675      2676
      2675      2683      2675      2677      2683      2684      2683      2685
      2683      2686      2677      2678      2678      2680      2678      2679
      2680      2681      2680      2682      2680      2692      2692      2693
      2692      2694      2692      2695      2695      2696      2695      2697
      2695      2698      2698      2699      2698      2700      2698      2701
      2701      2702      2701      2703      2701      2704      2704      2705
      2704      2706      2704      2707      2707      2708      2707      2709
      2707      2710      2710      2711      2710      2712      2712      2713
      2712      2714      2714      2715      2714      2716      2714      2717
      2717      2718      2717      2719      2717      2720      2720      2721
      2720      2722      2720      2723      2723      2724      2723      2725
      2723      2726      2726      2727      2726      2728      2726      2729
      2729      2730      2729      2731      2729      2732      2732      2733
      2732      2734      2732      2735      2735      2736      2735      2737
      2735      2738      2686      2687      2687      2689      2687      2688
      2689      2690      2689      2691      2689      2739      2739      2740
      2739      2741      2739      2742      2742      2743      2742      2744
      2742      2745      2745      2746      2745      2747      2745      2748
      2748      2749      2748      2750      2748      2751      2751      2752
      2751      2753      2751      2754      2754      2755      2754      2756
      2754      2757      2757      2758      2757      2759      2757      2760
      2760      2761      2760      2762      2760      2763      2763      2764
      2763      2765      2763      2766      2766      2767      2766      2768
      2766      2769      2769      2770      2769      2771      2769      2772
      2772      2773      2772      2774      2772      2775      2775      2776
      2775      2777      2775      2778      2778      2779      2778      2780
      2778      2781      2782      2786      2782      2790      2782      2794
      2786      2787      2786      2788      2786      2789      2790      2791
      2790      2792      2790      2793      2794      2795      2794      2796
      2794      2797      2782      2783      2783      2784      2783      2785
      2783      2798      2798      2799      2798      2800      2798      2804
      2805      2806      2804      2801      2801      2805      2801      2802
      2801      2803      2806      2807      2806      2808      2806      2809
      2809      2810      2809      2817      2809      2811      2817      2818
      2817      2819      2817      2820      2811      2812      2812      2814
      2812      2813      2814      2815      2814      2816      2814      2826
      2826      2827      2826      2828      2826      2829      2829      2830
      2829      2831      2829      2832      2832      2833      2832      2834
      2832      2835      2835      2836      2835      2837      2835      2838
      2838      2839      2838      2840      2838      2841      2841      2842
      2841      2843      2841      2844      2844      2845      2844      2846
      2846      2847      2846      2848      2848      2849      2848      2850
      2848      2851      2851      2852      2851      2853      2851      2854
      2854      2855      2854      2856      2854      2857      2857      2858
      2857      2859      2857      2860      2860      2861      2860      2862
      2860      2863      2863      2864      2863      2865      2863      2866
      2866      2867      2866      2868      2866      2869      2869      2870
      2869      2871      2869      2872      2820      2821      2821      2823
      2821      2822      2823      2824      2823      2825      2823      2873
      2873      2874      2873      2875      2873      2876      2876      2877
      2876      2878      2876      2879      2879      2880      2879      2881
      2879      2882      2882      2883      2882      2884      2882      2885
      2885      2886      2885      2887      2885      2888      2888      2889
      2888      2890      2888      2891      2891      2892      2891      2893
      2891      2894      2894      2895      2894      2896      2894      2897
      2897      2898      2897      2899      2897      2900      2900      2901
      2900      2902      2900      2903      2903      2904      2903      2905
      2903      2906      2906      2907      2906      2908      2906      2909
      2909      2910      2909      2911      2909      2912      2912      2913
      2912      2914      2912      2915      2916      2920      2916      2924
      2916      2928      2920      2921      2920      2922      2920      2923
      2924      2925      2924      2926      2924      2927      2928      2929
      2928      2930      2928      2931      2916      2917      2917      2918
      2917      2919      2917      2932      2932      2933      2932      2934
      2932      2938      2939      2940      2938      2935      2935      2939
      2935      2936      2935      2937      2940      2941      2940      2942
      2940      2943      2943      2944      2943      2951      2943      2945
      2951      2952      2951      2953      2951      2954      2945      2946
      2946      2948      2946      2947      2948      2949      2948      2950
      2948      2960      2960      2961      2960      2962      2960      2963
      2963      2964      2963      2965      2963      2966      2966      2967
      2966      2968      2966      2969      2969      2970      2969      2971
      2969      2972      2972      2973      2972      2974      2972      2975
      2975      2976      2975      2977      2975      2978      2978      2979
      2978      2980      2980      2981      2980      2982      2982      2983
      2982      2984      2982      2985      2985      2986      2985      2987
      2985      2988      2988      2989      2988      2990      2988      2991
      2991      2992      2991      2993      2991      2994      2994      2995
      2994      2996      2994      2997      2997      2998      2997      2999
      2997      3000      3000      3001      3000      3002      3000      3003
      3003      3004      3003      3005      3003      3006      2954      2955
      2955      2957      2955      2956      2957      2958      2957      2959
      2957      3007      3007      3008      3007      3009      3007      3010
      3010      3011      3010      3012      3010      3013      3013      3014
      3013      3015      3013      3016      3016      3017      3016      3018
      3016      3019      3019      3020      3019      3021      3019      3022
      3022      3023      3022      3024      3022      3025      3025      3026
      3025      3027      3025      3028      3028      3029      3028      3030
      3028      3031      3031      3032      3031      3033      3031      3034
      3034      3035      3034      3036      3034      3037      3037      3038
      3037      3039      3037      3040      3040      3041      3040      3042
      3040      3043      3043      3044      3043      3045      3043      3046
      3046      3047      3046      3048      3046      3049      3050      3054
      3050      3058      3050      3062      3054      3055      3054      3056
      3054      3057      3058      3059      3058      3060      3058      3061
      3062      3063      3062      3064      3062      3065      3050      3051
      3051      3052      3051      3053      3051      3066      3066      3067
      3066      3068      3066      3072      3073      3074      3072      3069
      3069      3073      3069      3070      3069      3071      3074      3075
      3074      3076      3074      3077      3077      3078      3077      3085
      3077      3079      3085      3086      3085      3087      3085      3088
      3079      3080      3080      3082      3080      3081      3082      3083
      3082      3084      3082      3094      3094      3095      3094      3096
      3094      3097      3097      3098      3097      3099      3097      3100
      3100      3101      3100      3102      3100      3103      3103      3104
      3103      3105      3103      3106      3106      3107      3106      3108
      3106      3109      3109      3110      3109      3111      3109      3112
      3112      3113      3112      3114      3114      3115      3114      3116
      3116      3117      3116      3118      3116      3119      3119      3120
      3119      3121      3119      3122      3122      3123      3122      3124
      3122      3125      3125      3126      3125      3127      3125      3128
      3128      3129      3128      3130      3128      3131      3131      3132
      3131      3133      3131      3134      3134      3135      3134      3136
      3134      3137      3137      3138      3137      3139      3137      3140
      3088      3089      3089      3091      3089      3090      3091      3092
      3091      3093      3091      3141      3141      3142      3141      3143
      3141      3144      3144      3145      3144      3146      3144      3147
      3147      3148      3147      3149      3147      3150      3150      3151
      3150      3152      3150      3153      3153      3154      3153      3155
      3153      3156      3156      3157      3156      3158      3156      3159
      3159      3160      3159      3161      3159      3162      3162      3163
      3162      3164      3162      3165      3165      3166      3165      3167
      3165      3168      3168      3169      3168      3170      3168      3171
      3171      3172      3171      3173      3171      3174      3174      3175
      3174      3176      3174      3177      3177      3178      3177      3179
      3177      3180      3180      3181      3180      3182      3180      3183
      3184      3185      3184      3186      3184      3187      3184      3188
      3192      3190      3190      3188      3190      3191      3188      3189
      3188      3193      3201      3200      3193      3194      3193      3195
      3193      3199      3199      3196      3196      3200      3196      3197
      3196      3198      3201      3202      3201      3203      3201      3204
      3204      3205      3204      3212      3204      3206      3212      3213
      3212      3214      3212      3215      3206      3207      3207      3209
      3207      3208      3209      3210      3209      3211      3209      3221
      3221      3222      3221      3223      3221      3224      3224      3225
      3224      3226      3224      3227      3227      3228      3227      3229
      3227      3230      3230      3231      3230      3232      3230      3233
      3233      3234      3233      3235      3233      3236      3236      3237
      3236      3238      3236      3239      3239      3240      3239      3241
      3241      3242      3241      3243      3243      3244      3243      3245
      3243      3246      3246      3247      3246      3248      3246      3249
      3249      3250      3249      3251      3249      3252      3252      3253
      3252      3254      3252      3255      3255      3256      3255      3257
      3255      3258      3258      3259      3258      3260      3258      3261
      3261      3262      3261      3263      3261      3264      3264      3265
      3264      3266      3264      3267      3215      3216      3216      3218
      3216      3217      3218      3219      3218      3220      3218      3268
      3268      3269      3268      3270      3268      3271      3271      3272
      3271      3273      3271      3274      3274      3275      3274      3276
      3274      3277      3277      3278      3277      3279      3277      3280
      3280      3281      3280      3282      3280      3283      3283      3284
      3283      3285      3283      3286      3286      3287      3286      3288
      3286      3289      3289      3290      3289      3291      3289      3292
      3292      3293      3292      3294      3292      3295      3295      3296
      3295      3297      3295      3298      3298      3299      3298      3300
      3298      3301      3301      3302      3301      3303      3301      3304
      3304      3305      3304      3306      3304      3307      3307      3308
      3307      3309      3307      3310      3311      3315      3311      3319
      3311      3323      3315      3316      3315      3317      3315      3318
      3319      3320      3319      3321      3319      3322      3323      3324
      3323      3325      3323      3326      3311      3312      3312      3313
      3312      3314      3312      3327      3327      3328      3327      3329
      3327      3333      3334      3335      3333      3330      3330      3334
      3330      3331      3330      3332      3335      3336      3335      3337
      3335      3338      3338      3339      3338      3346      3338      3340
      3346      3347      3346      3348      3346      3349      3340      3341
      3341      3343      3341      3342      3343      3344      3343      3345
      3343      3355      3355      3356      3355      3357      3355      3358
      3358      3359      3358      3360      3358      3361      3361      3362
      3361      3363      3361      3364      3364      3365      3364      3366
      3364      3367      3367      3368      3367      3369      3367      3370
      3370      3371      3370      3372      3370      3373      3373      3374
      3373      3375      3375      3376      3375      3377      3377      3378
      3377      3379      3377      3380      3380      3381      3380      3382
      3380      3383      3383      3384      3383      3385      3383      3386
      3386      3387      3386      3388      3386      3389      3389      3390
      3389      3391      3389      3392      3392      3393      3392      3394
      3392      3395      3395      3396      3395      3397      3395      3398
      3398      3399      3398      3400      3398      3401      3349      3350
      3350      3352      3350      3351      3352      3353      3352      3354
      3352      3402      3402      3403      3402      3404      3402      3405
      3405      3406      3405      3407      3405      3408      3408      3409
      3408      3410      3408      3411      3411      3412      3411      3413
      3411      3414      3414      3415      3414      3416      3414      3417
      3417      3418      3417      3419      3417      3420      3420      3421
      3420      3422      3420      3423      3423      3424      3423      3425
      3423      3426      3426      3427      3426      3428      3426      3429
      3429      3430      3429      3431      3429      3432      3432      3433
      3432      3434      3432      3435      3435      3436      3435      3437
      3435      3438      3438      3439      3438      3440      3438      3441
      3441      3442      3441      3443      3441      3444      3445      3449
      3445      3453      3445      3457      3449      3450      3449      3451
      3449      3452      3453      3454      3453      3455      3453      3456
      3457      3458      3457      3459      3457      3460      3445      3446
      3446      3447      3446      3448      3446      3461      3461      3462
      3461      3463      3461      3467      3468      3469      3467      3464
      3464      3468      3464      3465      3464      3466      3469      3470
      3469      3471      3469      3472      3472      3473      3472      3480
      3472      3474      3480      3481      3480      3482      3480      3483
      3474      3475      3475      3477      3475      3476      3477      3478
      3477      3479      3477      3489      3489      3490      3489      3491
      3489      3492      3492      3493      3492      3494      3492      3495
      3495      3496      3495      3497      3495      3498      3498      3499
      3498      3500      3498      3501      3501      3502      3501      3503
      3501      3504      3504      3505      3504      3506      3504      3507
      3507      3508      3507      3509      3509      3510      3509      3511
      3511      3512      3511      3513      3511      3514      3514      3515
      3514      3516      3514      3517      3517      3518      3517      3519
      3517      3520      3520      3521      3520      3522      3520      3523
      3523      3524      3523      3525      3523      3526      3526      3527
      3526      3528      3526      3529      3529      3530      3529      3531
      3529      3532      3532      3533      3532      3534      3532      3535
      3483      3484      3484      3486      3484      3485      3486      3487
      3486      3488      3486      3536      3536      3537      3536      3538
      3536      3539      3539      3540      3539      3541      3539      3542
      3542      3543      3542      3544      3542      3545      3545      3546
      3545      3547      3545      3548      3548      3549      3548      3550
      3548      3551      3551      3552      3551      3553      3551      3554
      3554      3555      3554      3556      3554      3557      3557      3558
      3557      3559      3557      3560      3560      3561      3560      3562
      3560      3563      3563      3564      3563      3565      3563      3566
      3566      3567      3566      3568      3566      3569      3569      3570
      3569      3571      3569      3572      3572      3573      3572      3574
      3572      3575      3575      3576      3575      3577      3575      3578
      3579      3583      3579      3587      3579      3591      3583      3584
      3583      3585      3583      3586      3587      3588      3587      3589
      3587      3590      3591      3592      3591      3593      3591      3594
      3579      3580      3580      3581      3580      3582      3580      3595
      3595      3596      3595      3597      3595      3601      3602      3603
      3601      3598      3598      3602      3598      3599      3598      3600
      3603      3604      3603      3605      3603      3606      3606      3607
      3606      3614      3606      3608      3614      3615      3614      3616
      3614      3617      3608      3609      3609      3611      3609      3610
      3611      3612      3611      3613      3611      3623      3623      3624
      3623      3625      3623      3626      3626      3627      3626      3628
      3626      3629      3629      3630      3629      3631      3629      3632
      3632      3633      3632      3634      3632      3635      3635      3636
      3635      3637      3635      3638      3638      3639      3638      3640
      3638      3641      3641      3642      3641      3643      3643      3644
      3643      3645      3645      3646      3645      3647      3645      3648
      3648      3649      3648      3650      3648      3651      3651      3652
      3651      3653      3651      3654      3654      3655      3654      3656
      3654      3657      3657      3658      3657      3659      3657      3660
      3660      3661      3660      3662      3660      3663      3663      3664
      3663      3665      3663      3666      3666      3667      3666      3668
      3666      3669      3617      3618      3618      3620      3618      3619
      3620      3621      3620      3622      3620      3670      3670      3671
      3670      3672      3670      3673      3673      3674      3673      3675
      3673      3676      3676      3677      3676      3678      3676      3679
      3679      3680      3679      3681      3679      3682      3682      3683
      3682      3684      3682      3685      3685      3686      3685      3687
      3685      3688      3688      3689      3688      3690      3688      3691
      3691      3692      3691      3693      3691      3694      3694      3695
      3694      3696      3694      3697      3697      3698      3697      3699
      3697      3700      3700      3701      3700      3702      3700      3703
      3703      3704      3703      3705      3703      3706      3706      3707
      3706      3708      3706      3709      3709      3710      3709      3711
      3709      3712      3713      3717      3713      3721      3713      3725
      3717      3718      3717      3719      3717      3720      3721      3722
      3721      3723      3721      3724      3725      3726      3725      3727
      3725      3728      3713      3714      3714      3715      3714      3716
      3714      3729      3729      3730      3729      3731      3729      3735
      3736      3737      3735      3732      3732      3736      3732      3733
      3732      3734      3737      3738      3737      3739      3737      3740
      3740      3741      3740      3748      3740      3742      3748      3749
      3748      3750      3748      3751      3742      3743      3743      3745
      3743      3744      3745      3746      3745      3747      3745      3757
      3757      3758      3757      3759      3757      3760      3760      3761
      3760      3762      3760      3763      3763      3764      3763      3765
      3763      3766      3766      3767      3766      3768      3766      3769
      3769      3770      3769      3771      3769      3772      3772      3773
      3772      3774      3772      3775      3775      3776      3775      3777
      3777      3778      3777      3779      3779      3780      3779      3781
      3779      3782      3782      3783      3782      3784      3782      3785
      3785      3786      3785      3787      3785      3788      3788      3789
      3788      3790      3788      3791      3791      3792      3791      3793
      3791      3794      3794      3795      3794      3796      3794      3797
      3797      3798      3797      3799      3797      3800      3800      3801
      3800      3802      3800      3803      3751      3752      3752      3754
      3752      3753      3754      3755      3754      3756      3754      3804
      3804      3805      3804      3806      3804      3807      3807      3808
      3807      3809      3807      3810      3810      3811      3810      3812
      3810      3813      3813      3814      3813      3815      3813      3816
      3816      3817      3816      3818      3816      3819      3819      3820
      3819      3821      3819      3822      3822      3823      3822      3824
      3822      3825      3825      3826      3825      3827      3825      3828
      3828      3829      3828      3830      3828      3831      3831      3832
      3831      3833      3831      3834      3834      3835      3834      3836
      3834      3837      3837      3838      3837      3839      3837      3840
      3840      3841      3840      3842      3840      3843      3843      3844
      3843      3845      3843      3846      3847      3851      3847      3855
      3847      3859      3851      3852      3851      3853      3851      3854
      3855      3856      3855      3857      3855      3858      3859      3860
      3859      3861      3859      3862      3847      3848      3848      3849
      3848      3850      3848      3863      3863      3864      3863      3865
      3863      3869      3870      3871      3869      3866      3866      3870
      3866      3867      3866      3868      3871      3872      3871      3873
      3871      3874      3874      3875      3874      3882      3874      3876
      3882      3883      3882      3884      3882      3885      3876      3877
      3877      3879      3877      3878      3879      3880      3879      3881
      3879      3891      3891      3892      3891      3893      3891      3894
      3894      3895      3894      3896      3894      3897      3897      3898
      3897      3899      3897      3900      3900      3901      3900      3902
      3900      3903      3903      3904      3903      3905      3903      3906
      3906      3907      3906      3908      3906      3909      3909      3910
      3909      3911      3911      3912      3911      3913      3913      3914
      3913      3915      3913      3916      3916      3917      3916      3918
      3916      3919      3919      3920      3919      3921      3919      3922
      3922      3923      3922      3924      3922      3925      3925      3926
      3925      3927      3925      3928      3928      3929      3928      3930
      3928      3931      3931      3932      3931      3933      3931      3934
      3934      3935      3934      3936      3934      3937      3885      3886
      3886      3888      3886      3887      3888      3889      3888      3890
      3888      3938      3938      3939      3938      3940      3938      3941
      3941      3942      3941      3943      3941      3944      3944      3945
      3944      3946      3944      3947      3947      3948      3947      3949
      3947      3950      3950      3951      3950      3952      3950      3953
      3953      3954      3953      3955      3953      3956      3956      3957
      3956      3958      3956      3959      3959      3960      3959      3961
      3959      3962      3962      3963      3962      3964      3962      3965
      3965      3966      3965      3967      3965      3968      3968      3969
      3968      3970      3968      3971      3971      3972      3971      3973
      3971      3974      3974      3975      3974      3976      3974      3977
      3977      3978      3977      3979      3977      3980      3981      3985
      3981      3989      3981      3993      3985      3986      3985      3987
      3985      3988      3989      3990      3989      3991      3989      3992
      3993      3994      3993      3995      3993      3996      3981      3982
      3982      3983      3982      3984      3982      3997      3997      3998
      3997      3999      3997      4003      4004      4005      4003      4000
      4000      4004      4000      4001      4000      4002      4005      4006
      4005      4007      4005      4008      4008      4009      4008      4016
      4008      4010      4016      4017      4016      4018      4016      4019
      4010      4011      4011      4013      4011      4012      4013      4014
      4013      4015      4013      4025      4025      4026      4025      4027
      4025      4028      4028      4029      4028      4030      4028      4031
      4031      4032      4031      4033      4031      4034      4034      4035
      4034      4036      4034      4037      4037      4038      4037      4039
      4037      4040      4040      4041      4040      4042      4040      4043
      4043      4044      4043      4045      4045      4046      4045      4047
      4047      4048      4047      4049      4047      4050      4050      4051
      4050      4052      4050      4053      4053      4054      4053      4055
      4053      4056      4056      4057      4056      4058      4056      4059
      4059      4060      4059      4061      4059      4062      4062      4063
      4062      4064      4062      4065      4065      4066      4065      4067
      4065      4068      4068      4069      4068      4070      4068      4071
      4019      4020      4020      4022      4020      4021      4022      4023
      4022      4024      4022      4072      4072      4073      4072      4074
      4072      4075      4075      4076      4075      4077      4075      4078
      4078      4079      4078      4080      4078      4081      4081      4082
      4081      4083      4081      4084      4084      4085      4084      4086
      4084      4087      4087      4088      4087      4089      4087      4090
      4090      4091      4090      4092      4090      4093      4093      4094
      4093      4095      4093      4096      4096      4097      4096      4098
      4096      4099      4099      4100      4099      4101      4099      4102
      4102      4103      4102      4104      4102      4105      4105      4106
      4105      4107      4105      4108      4108      4109      4108      4110
      4108      4111      4111      4112      4111      4113      4111      4114
      4115      4116      4115      4117      4115      4118      4115      4119
      4123      4121      4121      4119      4121      4122      4119      4120
      4119      4124      4132      4131      4124      4125      4124      4126
      4124      4130      4130      4127      4127      4131      4127      4128
      4127      4129      4132      4133      4132      4134      4132      4135
      4135      4136      4135      4143      4135      4137      4143      4144
      4143      4145      4143      4146      4137      4138      4138      4140
      4138      4139      4140      4141      4140      4142      4140      4152
      4152      4153      4152      4154      4152      4155      4155      4156
      4155      4157      4155      4158      4158      4159      4158      4160
      4158      4161      4161      4162      4161      4163      4161      4164
      4164      4165      4164      4166      4164      4167      4167      4168
      4167      4169      4167      4170      4170      4171      4170      4172
      4172      4173      4172      4174      4174      4175      4174      4176
      4174      4177      4177      4178      4177      4179      4177      4180
      4180      4181      4180      4182      4180      4183      4183      4184
      4183      4185      4183      4186      4186      4187      4186      4188
      4186      4189      4189      4190      4189      4191      4189      4192
      4192      4193      4192      4194      4192      4195      4195      4196
      4195      4197      4195      4198      4146      4147      4147      4149
      4147      4148      4149      4150      4149      4151      4149      4199
      4199      4200      4199      4201      4199      4202      4202      4203
      4202      4204      4202      4205      4205      4206      4205      4207
      4205      4208      4208      4209      4208      4210      4208      4211
      4211      4212      4211      4213      4211      4214      4214      4215
      4214      4216      4214      4217      4217      4218      4217      4219
      4217      4220      4220      4221      4220      4222      4220      4223
      4223      4224      4223      4225      4223      4226      4226      4227
      4226      4228      4226      4229      4229      4230      4229      4231
      4229      4232      4232      4233      4232      4234      4232      4235
      4235      4236      4235      4237      4235      4238      4238      4239
      4238      4240      4238      4241      4242      4246      4242      4250
      4242      4254      4246      4247      4246      4248      4246      4249
      4250      4251      4250      4252      4250      4253      4254      4255
      4254      4256      4254      4257      4242      4243      4243      4244
      4243      4245      4243      4258      4258      4259      4258      4260
      4258      4264      4265      4266      4264      4261      4261      4265
      4261      4262      4261      4263      4266      4267      4266      4268
      4266      4269      4269      4270      4269      4277      4269      4271
      4277      4278      4277      4279      4277      4280      4271      4272
      4272      4274      4272      4273      4274      4275      4274      4276
      4274      4286      4286      4287      4286      4288      4286      4289
      4289      4290      4289      4291      4289      4292      4292      4293
      4292      4294      4292      4295      4295      4296      4295      4297
      4295      4298      4298      4299      4298      4300      4298      4301
      4301      4302      4301      4303      4301      4304      4304      4305
      4304      4306      4306      4307      4306      4308      4308      4309
      4308      4310      4308      4311      4311      4312      4311      4313
      4311      4314      4314      4315      4314      4316      4314      4317
      4317      4318      4317      4319      4317      4320      4320      4321
      4320      4322      4320      4323      4323      4324      4323      4325
      4323      4326      4326      4327      4326      4328      4326      4329
      4329      4330      4329      4331      4329      4332      4280      4281
      4281      4283      4281      4282      4283      4284      4283      4285
      4283      4333      4333      4334      4333      4335      4333      4336
      4336      4337      4336      4338      4336      4339      4339      4340
      4339      4341      4339      4342      4342      4343      4342      4344
      4342      4345      4345      4346      4345      4347      4345      4348
      4348      4349      4348      4350      4348      4351      4351      4352
      4351      4353      4351      4354      4354      4355      4354      4356
      4354      4357      4357      4358      4357      4359      4357      4360
      4360      4361      4360      4362      4360      4363      4363      4364
      4363      4365      4363      4366      4366      4367      4366      4368
      4366      4369      4369      4370      4369      4371      4369      4372
      4372      4373      4372      4374      4372      4375      4376      4380
      4376      4384      4376      4388      4380      4381      4380      4382
      4380      4383      4384      4385      4384      4386      4384      4387
      4388      4389      4388      4390      4388      4391      4376      4377
      4377      4378      4377      4379      4377      4392      4392      4393
      4392      4394      4392      4398      4399      4400      4398      4395
      4395      4399      4395      4396      4395      4397      4400      4401
      4400      4402      4400      4403      4403      4404      4403      4411
      4403      4405      4411      4412      4411      4413      4411      4414
      4405      4406      4406      4408      4406      4407      4408      4409
      4408      4410      4408      4420      4420      4421      4420      4422
      4420      4423      4423      4424      4423      4425      4423      4426
      4426      4427      4426      4428      4426      4429      4429      4430
      4429      4431      4429      4432      4432      4433      4432      4434
      4432      4435      4435      4436      4435      4437      4435      4438
      4438      4439      4438      4440      4440      4441      4440      4442
      4442      4443      4442      4444      4442      4445      4445      4446
      4445      4447      4445      4448      4448      4449      4448      4450
      4448      4451      4451      4452      4451      4453      4451      4454
      4454      4455      4454      4456      4454      4457      4457      4458
      4457      4459      4457      4460      4460      4461      4460      4462
      4460      4463      4463      4464      4463      4465      4463      4466
      4414      4415      4415      4417      4415      4416      4417      4418
      4417      4419      4417      4467      4467      4468      4467      4469
      4467      4470      4470      4471      4470      4472      4470      4473
      4473      4474      4473      4475      4473      4476      4476      4477
      4476      4478      4476      4479      4479      4480      4479      4481
      4479      4482      4482      4483      4482      4484      4482      4485
      4485      4486      4485      4487      4485      4488      4488      4489
      4488      4490      4488      4491      4491      4492      4491      4493
      4491      4494      4494      4495      4494      4496      4494      4497
      4497      4498      4497      4499      4497      4500      4500      4501
      4500      4502      4500      4503      4503      4504      4503      4505
      4503      4506      4506      4507      4506      4508      4506      4509
      4510      4514      4510      4518      4510      4522      4514      4515
      4514      4516      4514      4517      4518      4519      4518      4520
      4518      4521      4522      4523      4522      4524      4522      4525
      4510      4511      4511      4512      4511      4513      4511      4526
      4526      4527      4526      4528      4526      4532      4533      4534
      4532      4529      4529      4533      4529      4530      4529      4531
      4534      4535      4534      4536      4534      4537      4537      4538
      4537      4545      4537      4539      4545      4546      4545      4547
      4545      4548      4539      4540      4540      4542      4540      4541
      4542      4543      4542      4544      4542      4554      4554      4555
      4554      4556      4554      4557      4557      4558      4557      4559
      4557      4560      4560      4561      4560      4562      4560      4563
      4563      4564      4563      4565      4563      4566      4566      4567
      4566      4568      4566      4569      4569      4570      4569      4571
      4569      4572      4572      4573      4572      4574      4574      4575
      4574      4576      4576      4577      4576      4578      4576      4579
      4579      4580      4579      4581      4579      4582      4582      4583
      4582      4584      4582      4585      4585      4586      4585      4587
      4585      4588      4588      4589      4588      4590      4588      4591
      4591      4592      4591      4593      4591      4594      4594      4595
      4594      4596      4594      4597      4597      4598      4597      4599
      4597      4600      4548      4549      4549      4551      4549      4550
      4551      4552      4551      4553      4551      4601      4601      4602
      4601      4603      4601      4604      4604      4605      4604      4606
      4604      4607      4607      4608      4607      4609      4607      4610
      4610      4611      4610      4612      4610      4613      4613      4614
      4613      4615      4613      4616      4616      4617      4616      4618
      4616      4619      4619      4620      4619      4621      4619      4622
      4622      4623      4622      4624      4622      4625      4625      4626
      4625      4627      4625      4628      4628      4629      4628      4630
      4628      4631      4631      4632      4631      4633      4631      4634
      4634      4635      4634      4636      4634      4637      4637      4638
      4637      4639      4637      4640      4640      4641      4640      4642
      4640      4643      4644      4645      4644      4646      4644      4647
      4644      4648      4652      4650      4650      4648      4650      4651
      4648      4649      4648      4653      4661      4660      4653      4654
      4653      4655      4653      4659      4659      4656      4656      4660
      4656      4657      4656      4658      4661      4662      4661      4663
      4661      4664      4664      4665      4664      4672      4664      4666
      4672      4673      4672      4674      4672      4675      4666      4667
      4667      4669      4667      4668      4669      4670      4669      4671
      4669      4681      4681      4682      4681      4683      4681      4684
      4684      4685      4684      4686      4684      4687      4687      4688
      4687      4689      4687      4690      4690      4691      4690      4692
      4690      4693      4693      4694      4693      4695      4693      4696
      4696      4697      4696      4698      4696      4699      4699      4700
      4699      4701      4701      4702      4701      4703      4703      4704
      4703      4705      4703      4706      4706      4707      4706      4708
      4706      4709      4709      4710      4709      4711      4709      4712
      4712      4713      4712      4714      4712      4715      4715      4716
      4715      4717      4715      4718      4718      4719      4718      4720
      4718      4721      4721      4722      4721      4723      4721      4724
      4724      4725      4724      4726      4724      4727      4675      4676
      4676      4678      4676      4677      4678      4679      4678      4680
      4678      4728      4728      4729      4728      4730      4728      4731
      4731      4732      4731      4733      4731      4734      4734      4735
      4734      4736      4734      4737      4737      4738      4737      4739
      4737      4740      4740      4741      4740      4742      4740      4743
      4743      4744      4743      4745      4743      4746      4746      4747
      4746      4748      4746      4749      4749      4750      4749      4751
      4749      4752      4752      4753      4752      4754      4752      4755
      4755      4756      4755      4757      4755      4758      4758      4759
      4758      4760      4758      4761      4761      4762      4761      4763
      4761      4764      4764      4765      4764      4766      4764      4767
      4767      4768      4767      4769      4767      4770      4771      4775
      4771      4779      4771      4783      4775      4776      4775      4777
      4775      4778      4779      4780      4779      4781      4779      4782
      4783      4784      4783      4785      4783      4786      4771      4772
      4772      4773      4772      4774      4772      4787      4787      4788
      4787      4789      4787      4793      4794      4795      4793      4790
      4790      4794      4790      4791      4790      4792      4795      4796
      4795      4797      4795      4798      4798      4799      4798      4806
      4798      4800      4806      4807      4806      4808      4806      4809
      4800      4801      4801      4803      4801      4802      4803      4804
      4803      4805      4803      4815      4815      4816      4815      4817
      4815      4818      4818      4819      4818      4820      4818      4821
      4821      4822      4821      4823      4821      4824      4824      4825
      4824      4826      4824      4827      4827      4828      4827      4829
      4827      4830      4830      4831      4830      4832      4830      4833
      4833      4834      4833      4835      4835      4836      4835      4837
      4837      4838      4837      4839      4837      4840      4840      4841
      4840      4842      4840      4843      4843      4844      4843      4845
      4843      4846      4846      4847      4846      4848      4846      4849
      4849      4850      4849      4851      4849      4852      4852      4853
      4852      4854      4852      4855      4855      4856      4855      4857
      4855      4858      4858      4859      4858      4860      4858      4861
      4809      4810      4810      4812      4810      4811      4812      4813
      4812      4814      4812      4862      4862      4863      4862      4864
      4862      4865      4865      4866      4865      4867      4865      4868
      4868      4869      4868      4870      4868      4871      4871      4872
      4871      4873      4871      4874      4874      4875      4874      4876
      4874      4877      4877      4878      4877      4879      4877      4880
      4880      4881      4880      4882      4880      4883      4883      4884
      4883      4885      4883      4886      4886      4887      4886      4888
      4886      4889      4889      4890      4889      4891      4889      4892
      4892      4893      4892      4894      4892      4895      4895      4896
      4895      4897      4895      4898      4898      4899      4898      4900
      4898      4901      4901      4902      4901      4903      4901      4904
      4905      4909      4905      4913      4905      4917      4909      4910
      4909      4911      4909      4912      4913      4914      4913      4915
      4913      4916      4917      4918      4917      4919      4917      4920
      4905      4906      4906      4907      4906      4908      4906      4921
      4921      4922      4921      4923      4921      4927      4928      4929
      4927      4924      4924      4928      4924      4925      4924      4926
      4929      4930      4929      4931      4929      4932      4932      4933
      4932      4940      4932      4934      4940      4941      4940      4942
      4940      4943      4934      4935      4935      4937      4935      4936
      4937      4938      4937      4939      4937      4949      4949      4950
      4949      4951      4949      4952      4952      4953      4952      4954
      4952      4955      4955      4956      4955      4957      4955      4958
      4958      4959      4958      4960      4958      4961      4961      4962
      4961      4963      4961      4964      4964      4965      4964      4966
      4964      4967      4967      4968      4967      4969      4969      4970
      4969      4971      4971      4972      4971      4973      4971      4974
      4974      4975      4974      4976      4974      4977      4977      4978
      4977      4979      4977      4980      4980      4981      4980      4982
      4980      4983      4983      4984      4983      4985      4983      4986
      4986      4987      4986      4988      4986      4989      4989      4990
      4989      4991      4989      4992      4992      4993      4992      4994
      4992      4995      4943      4944      4944      4946      4944      4945
      4946      4947      4946      4948      4946      4996      4996      4997
      4996      4998      4996      4999      4999      5000      4999      5001
      4999      5002      5002      5003      5002      5004      5002      5005
      5005      5006      5005      5007      5005      5008      5008      5009
      5008      5010      5008      5011      5011      5012      5011      5013
      5011      5014      5014      5015      5014      5016      5014      5017
      5017      5018      5017      5019      5017      5020      5020      5021
      5020      5022      5020      5023      5023      5024      5023      5025
      5023      5026      5026      5027      5026      5028      5026      5029
      5029      5030      5029      5031      5029      5032      5032      5033
      5032      5034      5032      5035      5035      5036      5035      5037
      5035      5038      5039      5043      5039      5047      5039      5051
      5043      5044      5043      5045      5043      5046      5047      5048
      5047      5049      5047      5050      5051      5052      5051      5053
      5051      5054      5039      5040      5040      5041      5040      5042
      5040      5055      5055      5056      5055      5057      5055      5061
      5062      5063      5061      5058      5058      5062      5058      5059
      5058      5060      5063      5064      5063      5065      5063      5066
      5066      5067      5066      5074      5066      5068      5074      5075
      5074      5076      5074      5077      5068      5069      5069      5071
      5069      5070      5071      5072      5071      5073      5071      5083
      5083      5084      5083      5085      5083      5086      5086      5087
      5086      5088      5086      5089      5089      5090      5089      5091
      5089      5092      5092      5093      5092      5094      5092      5095
      5095      5096      5095      5097      5095      5098      5098      5099
      5098      5100      5098      5101      5101      5102      5101      5103
      5103      5104      5103      5105      5105      5106      5105      5107
      5105      5108      5108      5109      5108      5110      5108      5111
      5111      5112      5111      5113      5111      5114      5114      5115
      5114      5116      5114      5117      5117      5118      5117      5119
      5117      5120      5120      5121      5120      5122      5120      5123
      5123      5124      5123      5125      5123      5126      5126      5127
      5126      5128      5126      5129      5077      5078      5078      5080
      5078      5079      5080      5081      5080      5082      5080      5130
      5130      5131      5130      5132      5130      5133      5133      5134
      5133      5135      5133      5136      5136      5137      5136      5138
      5136      5139      5139      5140      5139      5141      5139      5142
      5142      5143      5142      5144      5142      5145      5145      5146
      5145      5147      5145      5148      5148      5149      5148      5150
      5148      5151      5151      5152      5151      5153      5151      5154
      5154      5155      5154      5156      5154      5157      5157      5158
      5157      5159      5157      5160      5160      5161      5160      5162
      5160      5163      5163      5164      5163      5165      5163      5166
      5166      5167      5166      5168      5166      5169      5169      5170
      5169      5171      5169      5172      5173      5177      5173      5181
      5173      5185      5177      5178      5177      5179      5177      5180
      5181      5182      5181      5183      5181      5184      5185      5186
      5185      5187      5185      5188      5173      5174      5174      5175
      5174      5176      5174      5189      5189      5190      5189      5191
      5189      5195      5196      5197      5195      5192      5192      5196
      5192      5193      5192      5194      5197      5198      5197      5199
      5197      5200      5200      5201      5200      5208      5200      5202
      5208      5209      5208      5210      5208      5211      5202      5203
      5203      5205      5203      5204      5205      5206      5205      5207
      5205      5217      5217      5218      5217      5219      5217      5220
      5220      5221      5220      5222      5220      5223      5223      5224
      5223      5225      5223      5226      5226      5227      5226      5228
      5226      5229      5229      5230      5229      5231      5229      5232
      5232      5233      5232      5234      5232      5235      5235      5236
      5235      5237      5237      5238      5237      5239      5239      5240
      5239      5241      5239      5242      5242      5243      5242      5244
      5242      5245      5245      5246      5245      5247      5245      5248
      5248      5249      5248      5250      5248      5251      5251      5252
      5251      5253      5251      5254      5254      5255      5254      5256
      5254      5257      5257      5258      5257      5259      5257      5260
      5260      5261      5260      5262      5260      5263      5211      5212
      5212      5214      5212      5213      5214      5215      5214      5216
      5214      5264      5264      5265      5264      5266      5264      5267
      5267      5268      5267      5269      5267      5270      5270      5271
      5270      5272      5270      5273      5273      5274      5273      5275
      5273      5276      5276      5277      5276      5278      5276      5279
      5279      5280      5279      5281      5279      5282      5282      5283
      5282      5284      5282      5285      5285      5286      5285      5287
      5285      5288      5288      5289      5288      5290      5288      5291
      5291      5292      5291      5293      5291      5294      5294      5295
      5294      5296      5294      5297      5297      5298      5297      5299
      5297      5300      5300      5301      5300      5302      5300      5303
      5303      5304      5303      5305      5303      5306      5307      5311
      5307      5315      5307      5319      5311      5312      5311      5313
      5311      5314      5315      5316      5315      5317      5315      5318
      5319      5320      5319      5321      5319      5322      5307      5308
      5308      5309      5308      5310      5308      5323      5323      5324
      5323      5325      5323      5329      5330      5331      5329      5326
      5326      5330      5326      5327      5326      5328      5331      5332
      5331      5333      5331      5334      5334      5335      5334      5342
      5334      5336      5342      5343      5342      5344      5342      5345
      5336      5337      5337      5339      5337      5338      5339      5340
      5339      5341      5339      5351      5351      5352      5351      5353
      5351      5354      5354      5355      5354      5356      5354      5357
      5357      5358      5357      5359      5357      5360      5360      5361
      5360      5362      5360      5363      5363      5364      5363      5365
      5363      5366      5366      5367      5366      5368      5366      5369
      5369      5370      5369      5371      5371      5372      5371      5373
      5373      5374      5373      5375      5373      5376      5376      5377
      5376      5378      5376      5379      5379      5380      5379      5381
      5379      5382      5382      5383      5382      5384      5382      5385
      5385      5386      5385      5387      5385      5388      5388      5389
      5388      5390      5388      5391      5391      5392      5391      5393
      5391      5394      5394      5395      5394      5396      5394      5397
      5345      5346      5346      5348      5346      5347      5348      5349
      5348      5350      5348      5398      5398      5399      5398      5400
      5398      5401      5401      5402      5401      5403      5401      5404
      5404      5405      5404      5406      5404      5407      5407      5408
      5407      5409      5407      5410      5410      5411      5410      5412
      5410      5413      5413      5414      5413      5415      5413      5416
      5416      5417      5416      5418      5416      5419      5419      5420
      5419      5421      5419      5422      5422      5423      5422      5424
      5422      5425      5425      5426      5425      5427      5425      5428
      5428      5429      5428      5430      5428      5431      5431      5432
      5431      5433      5431      5434      5434      5435      5434      5436
      5434      5437      5437      5438      5437      5439      5437      5440
      5441      5445      5441      5449      5441      5453      5445      5446
      5445      5447      5445      5448      5449      5450      5449      5451
      5449      5452      5453      5454      5453      5455      5453      5456
      5441      5442      5442      5443      5442      5444      5442      5457
      5457      5458      5457      5459      5457      5463      5464      5465
      5463      5460      5460      5464      5460      5461      5460      5462
      5465      5466      5465      5467      5465      5468      5468      5469
      5468      5476      5468      5470      5476      5477      5476      5478
      5476      5479      5470      5471      5471      5473      5471      5472
      5473      5474      5473      5475      5473      5485      5485      5486
      5485      5487      5485      5488      5488      5489      5488      5490
      5488      5491      5491      5492      5491      5493      5491      5494
      5494      5495      5494      5496      5494      5497      5497      5498
      5497      5499      5497      5500      5500      5501      5500      5502
      5500      5503      5503      5504      5503      5505      5505      5506
      5505      5507      5507      5508      5507      5509      5507      5510
      5510      5511      5510      5512      5510      5513      5513      5514
      5513      5515      5513      5516      5516      5517      5516      5518
      5516      5519      5519      5520      5519      5521      5519      5522
      5522      5523      5522      5524      5522      5525      5525      5526
      5525      5527      5525      5528      5528      5529      5528      5530
      5528      5531      5479      5480      5480      5482      5480      5481
      5482      5483      5482      5484      5482      5532      5532      5533
      5532      5534      5532      5535      5535      5536      5535      5537
      5535      5538      5538      5539      5538      5540      5538      5541
      5541      5542      5541      5543      5541      5544      5544      5545
      5544      5546      5544      5547      5547      5548      5547      5549
      5547      5550      5550      5551      5550      5552      5550      5553
      5553      5554      5553      5555      5553      5556      5556      5557
      5556      5558      5556      5559      5559      5560      5559      5561
      5559      5562      5562      5563      5562      5564      5562      5565
      5565      5566      5565      5567      5565      5568      5568      5569
      5568      5570      5568      5571      5571      5572      5571      5573
      5571      5574      5575      5579      5575      5583      5575      5587
      5579      5580      5579      5581      5579      5582      5583      5584
      5583      5585      5583      5586      5587      5588      5587      5589
      5587      5590      5575      5576      5576      5577      5576      5578
      5576      5591      5591      5592      5591      5593      5591      5597
      5598      5599      5597      5594      5594      5598      5594      5595
      5594      5596      5599      5600      5599      5601      5599      5602
      5602      5603      5602      5610      5602      5604      5610      5611
      5610      5612      5610      5613      5604      5605      5605      5607
      5605      5606      5607      5608      5607      5609      5607      5619
      5619      5620      5619      5621      5619      5622      5622      5623
      5622      5624      5622      5625      5625      5626      5625      5627
      5625      5628      5628      5629      5628      5630      5628      5631
      5631      5632      5631      5633      5631      5634      5634      5635
      5634      5636      5634      5637      5637      5638      5637      5639
      5639      5640      5639      5641      5641      5642      5641      5643
      5641      5644      5644      5645      5644      5646      5644      5647
      5647      5648      5647      5649      5647      5650      5650      5651
      5650      5652      5650      5653      5653      5654      5653      5655
      5653      5656      5656      5657      5656      5658      5656      5659
      5659      5660      5659      5661      5659      5662      5662      5663
      5662      5664      5662      5665      5613      5614      5614      5616
      5614      5615      5616      5617      5616      5618      5616      5666
      5666      5667      5666      5668      5666      5669      5669      5670
      5669      5671      5669      5672      5672      5673      5672      5674
      5672      5675      5675      5676      5675      5677      5675      5678
      5678      5679      5678      5680      5678      5681      5681      5682
      5681      5683      5681      5684      5684      5685      5684      5686
      5684      5687      5687      5688      5687      5689      5687      5690
      5690      5691      5690      5692      5690      5693      5693      5694
      5693      5695      5693      5696      5696      5697      5696      5698
      5696      5699      5699      5700      5699      5701      5699      5702
      5702      5703      5702      5704      5702      5705      5705      5706
      5705      5707      5705      5708      5709      5710      5709      5711
      5709      5712      5709      5713      5717      5715      5715      5713
      5715      5716      5713      5714      5713      5718      5726      5725
      5718      5719      5718      5720      5718      5724      5724      5721
      5721      5725      5721      5722      5721      5723      5726      5727
      5726      5728      5726      5729      5729      5730      5729      5737
      5729      5731      5737      5738      5737      5739      5737      5740
      5731      5732      5732      5734      5732      5733      5734      5735
      5734      5736      5734      5746      5746      5747      5746      5748
      5746      5749      5749      5750      5749      5751      5749      5752
      5752      5753      5752      5754      5752      5755      5755      5756
      5755      5757      5755      5758      5758      5759      5758      5760
      5758      5761      5761      5762      5761      5763      5761      5764
      5764      5765      5764      5766      5766      5767      5766      5768
      5768      5769      5768      5770      5768      5771      5771      5772
      5771      5773      5771      5774      5774      5775      5774      5776
      5774      5777      5777      5778      5777      5779      5777      5780
      5780      5781      5780      5782      5780      5783      5783      5784
      5783      5785      5783      5786      5786      5787      5786      5788
      5786      5789      5789      5790      5789      5791      5789      5792
      5740      5741      5741      5743      5741      5742      5743      5744
      5743      5745      5743      5793      5793      5794      5793      5795
      5793      5796      5796      5797      5796      5798      5796      5799
      5799      5800      5799      5801      5799      5802      5802      5803
      5802      5804      5802      5805      5805      5806      5805      5807
      5805      5808      5808      5809      5808      5810      5808      5811
      5811      5812      5811      5813      5811      5814      5814      5815
      5814      5816      5814      5817      5817      5818      5817      5819
      5817      5820      5820      5821      5820      5822      5820      5823
      5823      5824      5823      5825      5823      5826      5826      5827
      5826      5828      5826      5829      5829      5830      5829      5831
      5829      5832      5832      5833      5832      5834      5832      5835
      5836      5840      5836      5844      5836      5848      5840      5841
      5840      5842      5840      5843      5844      5845      5844      5846
      5844      5847      5848      5849      5848      5850      5848      5851
      5836      5837      5837      5838      5837      5839      5837      5852
      5852      5853      5852      5854      5852      5858      5859      5860
      5858      5855      5855      5859      5855      5856      5855      5857
      5860      5861      5860      5862      5860      5863      5863      5864
      5863      5871      5863      5865      5871      5872      5871      5873
      5871      5874      5865      5866      5866      5868      5866      5867
      5868      5869      5868      5870      5868      5880      5880      5881
      5880      5882      5880      5883      5883      5884      5883      5885
      5883      5886      5886      5887      5886      5888      5886      5889
      5889      5890      5889      5891      5889      5892      5892      5893
      5892      5894      5892      5895      5895      5896      5895      5897
      5895      5898      5898      5899      5898      5900      5900      5901
      5900      5902      5902      5903      5902      5904      5902      5905
      5905      5906      5905      5907      5905      5908      5908      5909
      5908      5910      5908      5911      5911      5912      5911      5913
      5911      5914      5914      5915      5914      5916      5914      5917
      5917      5918      5917      5919      5917      5920      5920      5921
      5920      5922      5920      5923      5923      5924      5923      5925
      5923      5926      5874      5875      5875      5877      5875      5876
      5877      5878      5877      5879      5877      5927      5927      5928
      5927      5929      5927      5930      5930      5931      5930      5932
      5930      5933      5933      5934      5933      5935      5933      5936
      5936      5937      5936      5938      5936      5939      5939      5940
      5939      5941      5939      5942      5942      5943      5942      5944
      5942      5945      5945      5946      5945      5947      5945      5948
      5948      5949      5948      5950      5948      5951      5951      5952
      5951      5953      5951      5954      5954      5955      5954      5956
      5954      5957      5957      5958      5957      5959      5957      5960
      5960      5961      5960      5962      5960      5963      5963      5964
      5963      5965      5963      5966      5966      5967      5966      5968
      5966      5969      5970      5974      5970      5978      5970      5982
      5974      5975      5974      5976      5974      5977      5978      5979
      5978      5980      5978      5981      5982      5983      5982      5984
      5982      5985      5970      5971      5971      5972      5971      5973
      5971      5986      5986      5987      5986      5988      5986      5992
      5993      5994      5992      5989      5989      5993      5989      5990
      5989      5991      5994      5995      5994      5996      5994      5997
      5997      5998      5997      6005      5997      5999      6005      6006
      6005      6007      6005      6008      5999      6000      6000      6002
      6000      6001      6002      6003      6002      6004      6002      6014
      6014      6015      6014      6016      6014      6017      6017      6018
      6017      6019      6017      6020      6020      6021      6020      6022
      6020      6023      6023      6024      6023      6025      6023      6026
      6026      6027      6026      6028      6026      6029      6029      6030
      6029      6031      6029      6032      6032      6033      6032      6034
      6034      6035      6034      6036      6036      6037      6036      6038
      6036      6039      6039      6040      6039      6041      6039      6042
      6042      6043      6042      6044      6042      6045      6045      6046
      6045      6047      6045      6048      6048      6049      6048      6050
      6048      6051      6051      6052      6051      6053      6051      6054
      6054      6055      6054      6056      6054      6057      6057      6058
      6057      6059      6057      6060      6008      6009      6009      6011
      6009      6010      6011      6012      6011      6013      6011      6061
      6061      6062      6061      6063      6061      6064      6064      6065
      6064      6066      6064      6067      6067      6068      6067      6069
      6067      6070      6070      6071      6070      6072      6070      6073
      6073      6074      6073      6075      6073      6076      6076      6077
      6076      6078      6076      6079      6079      6080      6079      6081
      6079      6082      6082      6083      6082      6084      6082      6085
      6085      6086      6085      6087      6085      6088      6088      6089
      6088      6090      6088      6091      6091      6092      6091      6093
      6091      6094      6094      6095      6094      6096      6094      6097
      6097      6098      6097      6099      6097      6100      6100      6101
      6100      6102      6100      6103      6104      6105      6104      6106
      6104      6107      6104      6108      6112      6110      6110      6108
      6110      6111      6108      6109      6108      6113      6121      6120
      6113      6114      6113      6115      6113      6119      6119      6116
      6116      6120      6116      6117      6116      6118      6121      6122
      6121      6123      6121      6124      6124      6125      6124      6132
      6124      6126      6132      6133      6132      6134      6132      6135
      6126      6127      6127      6129      6127      6128      6129      6130
      6129      6131      6129      6141      6141      6142      6141      6143
      6141      6144      6144      6145      6144      6146      6144      6147
      6147      6148      6147      6149      6147      6150      6150      6151
      6150      6152      6150      6153      6153      6154      6153      6155
      6153      6156      6156      6157      6156      6158      6156      6159
      6159      6160      6159      6161      6161      6162      6161      6163
      6163      6164      6163      6165      6163      6166      6166      6167
      6166      6168      6166      6169      6169      6170      6169      6171
      6169      6172      6172      6173      6172      6174      6172      6175
      6175      6176      6175      6177      6175      6178      6178      6179
      6178      6180      6178      6181      6181      6182      6181      6183
      6181      6184      6184      6185      6184      6186      6184      6187
      6135      6136      6136      6138      6136      6137      6138      6139
      6138      6140      6138      6188      6188      6189      6188      6190
      6188      6191      6191      6192      6191      6193      6191      6194
      6194      6195      6194      6196      6194      6197      6197      6198
      6197      6199      6197      6200      6200      6201      6200      6202
      6200      6203      6203      6204      6203      6205      6203      6206
      6206      6207      6206      6208      6206      6209      6209      6210
      6209      6211      6209      6212      6212      6213      6212      6214
      6212      6215      6215      6216      6215      6217      6215      6218
      6218      6219      6218      6220      6218      6221      6221      6222
      6221      6223      6221      6224      6224      6225      6224      6226
      6224      6227      6227      6228      6227      6229      6227      6230
      6231      6235      6231      6239      6231      6243      6235      6236
      6235      6237      6235      6238      6239      6240      6239      6241
      6239      6242      6243      6244      6243      6245      6243      6246
      6231      6232      6232      6233      6232      6234      6232      6247
      6247      6248      6247      6249      6247      6253      6254      6255
      6253      6250      6250      6254      6250      6251      6250      6252
      6255      6256      6255      6257      6255      6258      6258      6259
      6258      6266      6258      6260      6266      6267      6266      6268
      6266      6269      6260      6261      6261      6263      6261      6262
      6263      6264      6263      6265      6263      6275      6275      6276
      6275      6277      6275      6278      6278      6279      6278      6280
      6278      6281      6281      6282      6281      6283      6281      6284
      6284      6285      6284      6286      6284      6287      6287      6288
      6287      6289      6287      6290      6290      6291      6290      6292
      6290      6293      6293      6294      6293      6295      6295      6296
      6295      6297      6297      6298      6297      6299      6297      6300
      6300      6301      6300      6302      6300      6303      6303      6304
      6303      6305      6303      6306      6306      6307      6306      6308
      6306      6309      6309      6310      6309      6311      6309      6312
      6312      6313      6312      6314      6312      6315      6315      6316
      6315      6317      6315      6318      6318      6319      6318      6320
      6318      6321      6269      6270      6270      6272      6270      6271
      6272      6273      6272      6274      6272      6322      6322      6323
      6322      6324      6322      6325      6325      6326      6325      6327
      6325      6328      6328      6329      6328      6330      6328      6331
      6331      6332      6331      6333      6331      6334      6334      6335
      6334      6336      6334      6337      6337      6338      6337      6339
      6337      6340      6340      6341      6340      6342      6340      6343
      6343      6344      6343      6345      6343      6346      6346      6347
      6346      6348      6346      6349      6349      6350      6349      6351
      6349      6352      6352      6353      6352      6354      6352      6355
      6355      6356      6355      6357      6355      6358      6358      6359
      6358      6360      6358      6361      6361      6362      6361      6363
      6361      6364      6365      6369      6365      6373      6365      6377
      6369      6370      6369      6371      6369      6372      6373      6374
      6373      6375      6373      6376      6377      6378      6377      6379
      6377      6380      6365      6366      6366      6367      6366      6368
      6366      6381      6381      6382      6381      6383      6381      6387
      6388      6389      6387      6384      6384      6388      6384      6385
      6384      6386      6389      6390      6389      6391      6389      6392
      6392      6393      6392      6400      6392      6394      6400      6401
      6400      6402      6400      6403      6394      6395      6395      6397
      6395      6396      6397      6398      6397      6399      6397      6409
      6409      6410      6409      6411      6409      6412      6412      6413
      6412      6414      6412      6415      6415      6416      6415      6417
      6415      6418      6418      6419      6418      6420      6418      6421
      6421      6422      6421      6423      6421      6424      6424      6425
      6424      6426      6424      6427      6427      6428      6427      6429
      6429      6430      6429      6431      6431      6432      6431      6433
      6431      6434      6434      6435      6434      6436      6434      6437
      6437      6438      6437      6439      6437      6440      6440      6441
      6440      6442      6440      6443      6443      6444      6443      6445
      6443      6446      6446      6447      6446      6448      6446      6449
      6449      6450      6449      6451      6449      6452      6452      6453
      6452      6454      6452      6455      6403      6404      6404      6406
      6404      6405      6406      6407      6406      6408      6406      6456
      6456      6457      6456      6458      6456      6459      6459      6460
      6459      6461      6459      6462      6462      6463      6462      6464
      6462      6465      6465      6466      6465      6467      6465      6468
      6468      6469      6468      6470      6468      6471      6471      6472
      6471      6473      6471      6474      6474      6475      6474      6476
      6474      6477      6477      6478      6477      6479      6477      6480
      6480      6481      6480      6482      6480      6483      6483      6484
      6483      6485      6483      6486      6486      6487      6486      6488
      6486      6489      6489      6490      6489      6491      6489      6492
      6492      6493      6492      6494      6492      6495      6495      6496
      6495      6497      6495      6498      6499      6503      6499      6507
      6499      6511      6503      6504      6503      6505      6503      6506
      6507      6508      6507      6509      6507      6510      6511      6512
      6511      6513      6511      6514      6499      6500      6500      6501
      6500      6502      6500      6515      6515      6516      6515      6517
      6515      6521      6522      6523      6521      6518      6518      6522
      6518      6519      6518      6520      6523      6524      6523      6525
      6523      6526      6526      6527      6526      6534      6526      6528
      6534      6535      6534      6536      6534      6537      6528      6529
      6529      6531      6529      6530      6531      6532      6531      6533
      6531      6543      6543      6544      6543      6545      6543      6546
      6546      6547      6546      6548      6546      6549      6549      6550
      6549      6551      6549      6552      6552      6553      6552      6554
      6552      6555      6555      6556      6555      6557      6555      6558
      6558      6559      6558      6560      6558      6561      6561      6562
      6561      6563      6563      6564      6563      6565      6565      6566
      6565      6567      6565      6568      6568      6569      6568      6570
      6568      6571      6571      6572      6571      6573      6571      6574
      6574      6575      6574      6576      6574      6577      6577      6578
      6577      6579      6577      6580      6580      6581      6580      6582
      6580      6583      6583      6584      6583      6585      6583      6586
      6586      6587      6586      6588      6586      6589      6537      6538
      6538      6540      6538      6539      6540      6541      6540      6542
      6540      6590      6590      6591      6590      6592      6590      6593
      6593      6594      6593      6595      6593      6596      6596      6597
      6596      6598      6596      6599      6599      6600      6599      6601
      6599      6602      6602      6603      6602      6604      6602      6605
      6605      6606      6605      6607      6605      6608      6608      6609
      6608      6610      6608      6611      6611      6612      6611      6613
      6611      6614      6614      6615      6614      6616      6614      6617
      6617      6618      6617      6619      6617      6620      6620      6621
      6620      6622      6620      6623      6623      6624      6623      6625
      6623      6626      6626      6627      6626      6628      6626      6629
      6629      6630      6629      6631      6629      6632      6633      6634
      6633      6635      6633      6636      6633      6637      6641      6639
      6639      6637      6639      6640      6637      6638      6637      6642
      6650      6649      6642      6643      6642      6644      6642      6648
      6648      6645      6645      6649      6645      6646      6645      6647
      6650      6651      6650      6652      6650      6653      6653      6654
      6653      6661      6653      6655      6661      6662      6661      6663
      6661      6664      6655      6656      6656      6658      6656      6657
      6658      6659      6658      6660      6658      6670      6670      6671
      6670      6672      6670      6673      6673      6674      6673      6675
      6673      6676      6676      6677      6676      6678      6676      6679
      6679      6680      6679      6681      6679      6682      6682      6683
      6682      6684      6682      6685      6685      6686      6685      6687
      6685      6688      6688      6689      6688      6690      6690      6691
      6690      6692      6692      6693      6692      6694      6692      6695
      6695      6696      6695      6697      6695      6698      6698      6699
      6698      6700      6698      6701      6701      6702      6701      6703
      6701      6704      6704      6705      6704      6706      6704      6707
      6707      6708      6707      6709      6707      6710      6710      6711
      6710      6712      6710      6713      6713      6714      6713      6715
      6713      6716      6664      6665      6665      6667      6665      6666
      6667      6668      6667      6669      6667      6717      6717      6718
      6717      6719      6717      6720      6720      6721      6720      6722
      6720      6723      6723      6724      6723      6725      6723      6726
      6726      6727      6726      6728      6726      6729      6729      6730
      6729      6731      6729      6732      6732      6733      6732      6734
      6732      6735      6735      6736      6735      6737      6735      6738
      6738      6739      6738      6740      6738      6741      6741      6742
      6741      6743      6741      6744      6744      6745      6744      6746
      6744      6747      6747      6748      6747      6749      6747      6750
      6750      6751      6750      6752      6750      6753      6753      6754
      6753      6755      6753      6756      6756      6757      6756      6758
      6756      6759      6760      6764      6760      6768      6760      6772
      6764      6765      6764      6766      6764      6767      6768      6769
      6768      6770      6768      6771      6772      6773      6772      6774
      6772      6775      6760      6761      6761      6762      6761      6763
      6761      6776      6776      6777      6776      6778      6776      6782
      6783      6784      6782      6779      6779      6783      6779      6780
      6779      6781      6784      6785      6784      6786      6784      6787
      6787      6788      6787      6795      6787      6789      6795      6796
      6795      6797      6795      6798      6789      6790      6790      6792
      6790      6791      6792      6793      6792      6794      6792      6804
      6804      6805      6804      6806      6804      6807      6807      6808
      6807      6809      6807      6810      6810      6811      6810      6812
      6810      6813      6813      6814      6813      6815      6813      6816
      6816      6817      6816      6818      6816      6819      6819      6820
      6819      6821      6819      6822      6822      6823      6822      6824
      6824      6825      6824      6826      6826      6827      6826      6828
      6826      6829      6829      6830      6829      6831      6829      6832
      6832      6833      6832      6834      6832      6835      6835      6836
      6835      6837      6835      6838      6838      6839      6838      6840
      6838      6841      6841      6842      6841      6843      6841      6844
      6844      6845      6844      6846      6844      6847      6847      6848
      6847      6849      6847      6850      6798      6799      6799      6801
      6799      6800      6801      6802      6801      6803      6801      6851
      6851      6852      6851      6853      6851      6854      6854      6855
      6854      6856      6854      6857      6857      6858      6857      6859
      6857      6860      6860      6861      6860      6862      6860      6863
      6863      6864      6863      6865      6863      6866      6866      6867
      6866      6868      6866      6869      6869      6870      6869      6871
      6869      6872      6872      6873      6872      6874      6872      6875
      6875      6876      6875      6877      6875      6878      6878      6879
      6878      6880      6878      6881      6881      6882      6881      6883
      6881      6884      6884      6885      6884      6886      6884      6887
      6887      6888      6887      6889      6887      6890      6890      6891
      6890      6892      6890      6893      6894      6898      6894      6902
      6894      6906      6898      6899      6898      6900      6898      6901
      6902      6903      6902      6904      6902      6905      6906      6907
      6906      6908      6906      6909      6894      6895      6895      6896
      6895      6897      6895      6910      6910      6911      6910      6912
      6910      6916      6917      6918      6916      6913      6913      6917
      6913      6914      6913      6915      6918      6919      6918      6920
      6918      6921      6921      6922      6921      6929      6921      6923
      6929      6930      6929      6931      6929      6932      6923      6924
      6924      6926      6924      6925      6926      6927      6926      6928
      6926      6938      6938      6939      6938      6940      6938      6941
      6941      6942      6941      6943      6941      6944      6944      6945
      6944      6946      6944      6947      6947      6948      6947      6949
      6947      6950      6950      6951      6950      6952      6950      6953
      6953      6954      6953      6955      6953      6956      6956      6957
      6956      6958      6958      6959      6958      6960      6960      6961
      6960      6962      6960      6963      6963      6964      6963      6965
      6963      6966      6966      6967      6966      6968      6966      6969
      6969      6970      6969      6971      6969      6972      6972      6973
      6972      6974      6972      6975      6975      6976      6975      6977
      6975      6978      6978      6979      6978      6980      6978      6981
      6981      6982      6981      6983      6981      6984      6932      6933
      6933      6935      6933      6934      6935      6936      6935      6937
      6935      6985      6985      6986      6985      6987      6985      6988
      6988      6989      6988      6990      6988      6991      6991      6992
      6991      6993      6991      6994      6994      6995      6994      6996
      6994      6997      6997      6998      6997      6999      6997      7000
      7000      7001      7000      7002      7000      7003      7003      7004
      7003      7005      7003      7006      7006      7007      7006      7008
      7006      7009      7009      7010      7009      7011      7009      7012
      7012      7013      7012      7014      7012      7015      7015      7016
      7015      7017      7015      7018      7018      7019      7018      7020
      7018      7021      7021      7022      7021      7023      7021      7024
      7024      7025      7024      7026      7024      7027      7028      7032
      7028      7036      7028      7040      7032      7033      7032      7034
      7032      7035      7036      7037      7036      7038      7036      7039
      7040      7041      7040      7042      7040      7043      7028      7029
      7029      7030      7029      7031      7029      7044      7044      7045
      7044      7046      7044      7050      7051      7052      7050      7047
      7047      7051      7047      7048      7047      7049      7052      7053
      7052      7054      7052      7055      7055      7056      7055      7063
      7055      7057      7063      7064      7063      7065      7063      7066
      7057      7058      7058      7060      7058      7059      7060      7061
      7060      7062      7060      7072      7072      7073      7072      7074
      7072      7075      7075      7076      7075      7077      7075      7078
      7078      7079      7078      7080      7078      7081      7081      7082
      7081      7083      7081      7084      7084      7085      7084      7086
      7084      7087      7087      7088      7087      7089      7087      7090
      7090      7091      7090      7092      7092      7093      7092      7094
      7094      7095      7094      7096      7094      7097      7097      7098
      7097      7099      7097      7100      7100      7101      7100      7102
      7100      7103      7103      7104      7103      7105      7103      7106
      7106      7107      7106      7108      7106      7109      7109      7110
      7109      7111      7109      7112      7112      7113      7112      7114
      7112      7115      7115      7116      7115      7117      7115      7118
      7066      7067      7067      7069      7067      7068      7069      7070
      7069      7071      7069      7119      7119      7120      7119      7121
      7119      7122      7122      7123      7122      7124      7122      7125
      7125      7126      7125      7127      7125      7128      7128      7129
      7128      7130      7128      7131      7131      7132      7131      7133
      7131      7134      7134      7135      7134      7136      7134      7137
      7137      7138      7137      7139      7137      7140      7140      7141
      7140      7142      7140      7143      7143      7144      7143      7145
      7143      7146      7146      7147      7146      7148      7146      7149
      7149      7150      7149      7151      7149      7152      7152      7153
      7152      7154      7152      7155      7155      7156      7155      7157
      7155      7158      7158      7159      7158      7160      7158      7161
      7162      7166      7162      7170      7162      7174      7166      7167
      7166      7168      7166      7169      7170      7171      7170      7172
      7170      7173      7174      7175      7174      7176      7174      7177
      7162      7163      7163      7164      7163      7165      7163      7178
      7178      7179      7178      7180      7178      7184      7185      7186
      7184      7181      7181      7185      7181      7182      7181      7183
      7186      7187      7186      7188      7186      7189      7189      7190
      7189      7197      7189      7191      7197      7198      7197      7199
      7197      7200      7191      7192      7192      7194      7192      7193
      7194      7195      7194      7196      7194      7206      7206      7207
      7206      7208      7206      7209      7209      7210      7209      7211
      7209      7212      7212      7213      7212      7214      7212      7215
      7215      7216      7215      7217      7215      7218      7218      7219
      7218      7220      7218      7221      7221      7222      7221      7223
      7221      7224      7224      7225      7224      7226      7226      7227
      7226      7228      7228      7229      7228      7230      7228      7231
      7231      7232      7231      7233      7231      7234      7234      7235
      7234      7236      7234      7237      7237      7238      7237      7239
      7237      7240      7240      7241      7240      7242      7240      7243
      7243      7244      7243      7245      7243      7246      7246      7247
      7246      7248      7246      7249      7249      7250      7249      7251
      7249      7252      7200      7201      7201      7203      7201      7202
      7203      7204      7203      7205      7203      7253      7253      7254
      7253      7255      7253      7256      7256      7257      7256      7258
      7256      7259      7259      7260      7259      7261      7259      7262
      7262      7263      7262      7264      7262      7265      7265      7266
      7265      7267      7265      7268      7268      7269      7268      7270
      7268      7271      7271      7272      7271      7273      7271      7274
      7274      7275      7274      7276      7274      7277      7277      7278
      7277      7279      7277      7280      7280      7281      7280      7282
      7280      7283      7283      7284      7283      7285      7283      7286
      7286      7287      7286      7288      7286      7289      7289      7290
      7289      7291      7289      7292      7292      7293      7292      7294
      7292      7295      7296      7300      7296      7304      7296      7308
      7300      7301      7300      7302      7300      7303      7304      7305
      7304      7306      7304      7307      7308      7309      7308      7310
      7308      7311      7296      7297      7297      7298      7297      7299
      7297      7312      7312      7313      7312      7314      7312      7318
      7319      7320      7318      7315      7315      7319      7315      7316
      7315      7317      7320      7321      7320      7322      7320      7323
      7323      7324      7323      7331      7323      7325      7331      7332
      7331      7333      7331      7334      7325      7326      7326      7328
      7326      7327      7328      7329      7328      7330      7328      7340
      7340      7341      7340      7342      7340      7343      7343      7344
      7343      7345      7343      7346      7346      7347      7346      7348
      7346      7349      7349      7350      7349      7351      7349      7352
      7352      7353      7352      7354      7352      7355      7355      7356
      7355      7357      7355      7358      7358      7359      7358      7360
      7360      7361      7360      7362      7362      7363      7362      7364
      7362      7365      7365      7366      7365      7367      7365      7368
      7368      7369      7368      7370      7368      7371      7371      7372
      7371      7373      7371      7374      7374      7375      7374      7376
      7374      7377      7377      7378      7377      7379      7377      7380
      7380      7381      7380      7382      7380      7383      7383      7384
      7383      7385      7383      7386      7334      7335      7335      7337
      7335      7336      7337      7338      7337      7339      7337      7387
      7387      7388      7387      7389      7387      7390      7390      7391
      7390      7392      7390      7393      7393      7394      7393      7395
      7393      7396      7396      7397      7396      7398      7396      7399
      7399      7400      7399      7401      7399      7402      7402      7403
      7402      7404      7402      7405      7405      7406      7405      7407
      7405      7408      7408      7409      7408      7410      7408      7411
      7411      7412      7411      7413      7411      7414      7414      7415
      7414      7416      7414      7417      7417      7418      7417      7419
      7417      7420      7420      7421      7420      7422      7420      7423
      7423      7424      7423      7425      7423      7426      7426      7427
      7426      7428      7426      7429      7430      7434      7430      7438
      7430      7442      7434      7435      7434      7436      7434      7437
      7438      7439      7438      7440      7438      7441      7442      7443
      7442      7444      7442      7445      7430      7431      7431      7432
      7431      7433      7431      7446      7446      7447      7446      7448
      7446      7452      7453      7454      7452      7449      7449      7453
      7449      7450      7449      7451      7454      7455      7454      7456
      7454      7457      7457      7458      7457      7465      7457      7459
      7465      7466      7465      7467      7465      7468      7459      7460
      7460      7462      7460      7461      7462      7463      7462      7464
      7462      7474      7474      7475      7474      7476      7474      7477
      7477      7478      7477      7479      7477      7480      7480      7481
      7480      7482      7480      7483      7483      7484      7483      7485
      7483      7486      7486      7487      7486      7488      7486      7489
      7489      7490      7489      7491      7489      7492      7492      7493
      7492      7494      7494      7495      7494      7496      7496      7497
      7496      7498      7496      7499      7499      7500      7499      7501
      7499      7502      7502      7503      7502      7504      7502      7505
      7505      7506      7505      7507      7505      7508      7508      7509
      7508      7510      7508      7511      7511      7512      7511      7513
      7511      7514      7514      7515      7514      7516      7514      7517
      7517      7518      7517      7519      7517      7520      7468      7469
      7469      7471      7469      7470      7471      7472      7471      7473
      7471      7521      7521      7522      7521      7523      7521      7524
      7524      7525      7524      7526      7524      7527      7527      7528
      7527      7529      7527      7530      7530      7531      7530      7532
      7530      7533      7533      7534      7533      7535      7533      7536
      7536      7537      7536      7538      7536      7539      7539      7540
      7539      7541      7539      7542      7542      7543      7542      7544
      7542      7545      7545      7546      7545      7547      7545      7548
      7548      7549      7548      7550      7548      7551      7551      7552
      7551      7553      7551      7554      7554      7555      7554      7556
      7554      7557      7557      7558      7557      7559      7557      7560
      7560      7561      7560      7562      7560      7563      7564      7568
      7564      7572      7564      7576      7568      7569      7568      7570
      7568      7571      7572      7573      7572      7574      7572      7575
      7576      7577      7576      7578      7576      7579      7564      7565
      7565      7566      7565      7567      7565      7580      7580      7581
      7580      7582      7580      7586      7587      7588      7586      7583
      7583      7587      7583      7584      7583      7585      7588      7589
      7588      7590      7588      7591      7591      7592      7591      7599
      7591      7593      7599      7600      7599      7601      7599      7602
      7593      7594      7594      7596      7594      7595      7596      7597
      7596      7598      7596      7608      7608      7609      7608      7610
      7608      7611      7611      7612      7611      7613      7611      7614
      7614      7615      7614      7616      7614      7617      7617      7618
      7617      7619      7617      7620      7620      7621      7620      7622
      7620      7623      7623      7624      7623      7625      7623      7626
      7626      7627      7626      7628      7628      7629      7628      7630
      7630      7631      7630      7632      7630      7633      7633      7634
      7633      7635      7633      7636      7636      7637      7636      7638
      7636      7639      7639      7640      7639      7641      7639      7642
      7642      7643      7642      7644      7642      7645      7645      7646
      7645      7647      7645      7648      7648      7649      7648      7650
      7648      7651      7651      7652      7651      7653      7651      7654
      7602      7603      7603      7605      7603      7604      7605      7606
      7605      7607      7605      7655      7655      7656      7655      7657
      7655      7658      7658      7659      7658      7660      7658      7661
      7661      7662      7661      7663      7661      7664      7664      7665
      7664      7666      7664      7667      7667      7668      7667      7669
      7667      7670      7670      7671      7670      7672      7670      7673
      7673      7674      7673      7675      7673      7676      7676      7677
      7676      7678      7676      7679      7679      7680      7679      7681
      7679      7682      7682      7683      7682      7684      7682      7685
      7685      7686      7685      7687      7685      7688      7688      7689
      7688      7690      7688      7691      7691      7692      7691      7693
      7691      7694      7694      7695      7694      7696      7694      7697
      7698      7702      7698      7706      7698      7710      7702      7703
      7702      7704      7702      7705      7706      7707      7706      7708
      7706      7709      7710      7711      7710      7712      7710      7713
      7698      7699      7699      7700      7699      7701      7699      7714
      7714      7715      7714      7716      7714      7720      7721      7722
      7720      7717      7717      7721      7717      7718      7717      7719
      7722      7723      7722      7724      7722      7725      7725      7726
      7725      7733      7725      7727      7733      7734      7733      7735
      7733      7736      7727      7728      7728      7730      7728      7729
      7730      7731      7730      7732      7730      7742      7742      7743
      7742      7744      7742      7745      7745      7746      7745      7747
      7745      7748      7748      7749      7748      7750      7748      7751
      7751      7752      7751      7753      7751      7754      7754      7755
      7754      7756      7754      7757      7757      7758      7757      7759
      7757      7760      7760      7761      7760      7762      7762      7763
      7762      7764      7764      7765      7764      7766      7764      7767
      7767      7768      7767      7769      7767      7770      7770      7771
      7770      7772      7770      7773      7773      7774      7773      7775
      7773      7776      7776      7777      7776      7778      7776      7779
      7779      7780      7779      7781      7779      7782      7782      7783
      7782      7784      7782      7785      7785      7786      7785      7787
      7785      7788      7736      7737      7737      7739      7737      7738
      7739      7740      7739      7741      7739      7789      7789      7790
      7789      7791      7789      7792      7792      7793      7792      7794
      7792      7795      7795      7796      7795      7797      7795      7798
      7798      7799      7798      7800      7798      7801      7801      7802
      7801      7803      7801      7804      7804      7805      7804      7806
      7804      7807      7807      7808      7807      7809      7807      7810
      7810      7811      7810      7812      7810      7813      7813      7814
      7813      7815      7813      7816      7816      7817      7816      7818
      7816      7819      7819      7820      7819      7821      7819      7822
      7822      7823      7822      7824      7822      7825      7825      7826
      7825      7827      7825      7828      7828      7829      7828      7830
      7828      7831      7832      7836      7832      7840      7832      7844
      7836      7837      7836      7838      7836      7839      7840      7841
      7840      7842      7840      7843      7844      7845      7844      7846
      7844      7847      7832      7833      7833      7834      7833      7835
      7833      7848      7848      7849      7848      7850      7848      7854
      7855      7856      7854      7851      7851      7855      7851      7852
      7851      7853      7856      7857      7856      7858      7856      7859
      7859      7860      7859      7867      7859      7861      7867      7868
      7867      7869      7867      7870      7861      7862      7862      7864
      7862      7863      7864      7865      7864      7866      7864      7876
      7876      7877      7876      7878      7876      7879      7879      7880
      7879      7881      7879      7882      7882      7883      7882      7884
      7882      7885      7885      7886      7885      7887      7885      7888
      7888      7889      7888      7890      7888      7891      7891      7892
      7891      7893      7891      7894      7894      7895      7894      7896
      7896      7897      7896      7898      7898      7899      7898      7900
      7898      7901      7901      7902      7901      7903      7901      7904
      7904      7905      7904      7906      7904      7907      7907      7908
      7907      7909      7907      7910      7910      7911      7910      7912
      7910      7913      7913      7914      7913      7915      7913      7916
      7916      7917      7916      7918      7916      7919      7919      7920
      7919      7921      7919      7922      7870      7871      7871      7873
      7871      7872      7873      7874      7873      7875      7873      7923
      7923      7924      7923      7925      7923      7926      7926      7927
      7926      7928      7926      7929      7929      7930      7929      7931
      7929      7932      7932      7933      7932      7934      7932      7935
      7935      7936      7935      7937      7935      7938      7938      7939
      7938      7940      7938      7941      7941      7942      7941      7943
      7941      7944      7944      7945      7944      7946      7944      7947
      7947      7948      7947      7949      7947      7950      7950      7951
      7950      7952      7950      7953      7953      7954      7953      7955
      7953      7956      7956      7957      7956      7958      7956      7959
      7959      7960      7959      7961      7959      7962      7962      7963
      7962      7964      7962      7965      7966      7970      7966      7974
      7966      7978      7970      7971      7970      7972      7970      7973
      7974      7975      7974      7976      7974      7977      7978      7979
      7978      7980      7978      7981      7966      7967      7967      7968
      7967      7969      7967      7982      7982      7983      7982      7984
      7982      7988      7989      7990      7988      7985      7985      7989
      7985      7986      7985      7987      7990      7991      7990      7992
      7990      7993      7993      7994      7993      8001      7993      7995
      8001      8002      8001      8003      8001      8004      7995      7996
      7996      7998      7996      7997      7998      7999      7998      8000
      7998      8010      8010      8011      8010      8012      8010      8013
      8013      8014      8013      8015      8013      8016      8016      8017
      8016      8018      8016      8019      8019      8020      8019      8021
      8019      8022      8022      8023      8022      8024      8022      8025
      8025      8026      8025      8027      8025      8028      8028      8029
      8028      8030      8030      8031      8030      8032      8032      8033
      8032      8034      8032      8035      8035      8036      8035      8037
      8035      8038      8038      8039      8038      8040      8038      8041
      8041      8042      8041      8043      8041      8044      8044      8045
      8044      8046      8044      8047      8047      8048      8047      8049
      8047      8050      8050      8051      8050      8052      8050      8053
      8053      8054      8053      8055      8053      8056      8004      8005
      8005      8007      8005      8006      8007      8008      8007      8009
      8007      8057      8057      8058      8057      8059      8057      8060
      8060      8061      8060      8062      8060      8063      8063      8064
      8063      8065      8063      8066      8066      8067      8066      8068
      8066      8069      8069      8070      8069      8071      8069      8072
      8072      8073      8072      8074      8072      8075      8075      8076
      8075      8077      8075      8078      8078      8079      8078      8080
      8078      8081      8081      8082      8081      8083      8081      8084
      8084      8085      8084      8086      8084      8087      8087      8088
      8087      8089      8087      8090      8090      8091      8090      8092
      8090      8093      8093      8094      8093      8095      8093      8096
      8096      8097      8096      8098      8096      8099      8100      8104
      8100      8108      8100      8112      8104      8105      8104      8106
      8104      8107      8108      8109      8108      8110      8108      8111
      8112      8113      8112      8114      8112      8115      8100      8101
      8101      8102      8101      8103      8101      8116      8116      8117
      8116      8118      8116      8122      8123      8124      8122      8119
      8119      8123      8119      8120      8119      8121      8124      8125
      8124      8126      8124      8127      8127      8128      8127      8135
      8127      8129      8135      8136      8135      8137      8135      8138
      8129      8130      8130      8132      8130      8131      8132      8133
      8132      8134      8132      8144      8144      8145      8144      8146
      8144      8147      8147      8148      8147      8149      8147      8150
      8150      8151      8150      8152      8150      8153      8153      8154
      8153      8155      8153      8156      8156      8157      8156      8158
      8156      8159      8159      8160      8159      8161      8159      8162
      8162      8163      8162      8164      8164      8165      8164      8166
      8166      8167      8166      8168      8166      8169      8169      8170
      8169      8171      8169      8172      8172      8173      8172      8174
      8172      8175      8175      8176      8175      8177      8175      8178
      8178      8179      8178      8180      8178      8181      8181      8182
      8181      8183      8181      8184      8184      8185      8184      8186
      8184      8187      8187      8188      8187      8189      8187      8190
      8138      8139      8139      8141      8139      8140      8141      8142
      8141      8143      8141      8191      8191      8192      8191      8193
      8191      8194      8194      8195      8194      8196      8194      8197
      8197      8198      8197      8199      8197      8200      8200      8201
      8200      8202      8200      8203      8203      8204      8203      8205
      8203      8206      8206      8207      8206      8208      8206      8209
      8209      8210      8209      8211      8209      8212      8212      8213
      8212      8214      8212      8215      8215      8216      8215      8217
      8215      8218      8218      8219      8218      8220      8218      8221
      8221      8222      8221      8223      8221      8224      8224      8225
      8224      8226      8224      8227      8227      8228      8227      8229
      8227      8230      8230      8231      8230      8232      8230      8233
      8234      8238      8234      8242      8234      8246      8238      8239
      8238      8240      8238      8241      8242      8243      8242      8244
      8242      8245      8246      8247      8246      8248      8246      8249
      8234      8235      8235      8236      8235      8237      8235      8250
      8250      8251      8250      8252      8250      8256      8257      8258
      8256      8253      8253      8257      8253      8254      8253      8255
      8258      8259      8258      8260      8258      8261      8261      8262
      8261      8269      8261      8263      8269      8270      8269      8271
      8269      8272      8263      8264      8264      8266      8264      8265
      8266      8267      8266      8268      8266      8278      8278      8279
      8278      8280      8278      8281      8281      8282      8281      8283
      8281      8284      8284      8285      8284      8286      8284      8287
      8287      8288      8287      8289      8287      8290      8290      8291
      8290      8292      8290      8293      8293      8294      8293      8295
      8293      8296      8296      8297      8296      8298      8298      8299
      8298      8300      8300      8301      8300      8302      8300      8303
      8303      8304      8303      8305      8303      8306      8306      8307
      8306      8308      8306      8309      8309      8310      8309      8311
      8309      8312      8312      8313      8312      8314      8312      8315
      8315      8316      8315      8317      8315      8318      8318      8319
      8318      8320      8318      8321      8321      8322      8321      8323
      8321      8324      8272      8273      8273      8275      8273      8274
      8275      8276      8275      8277      8275      8325      8325      8326
      8325      8327      8325      8328      8328      8329      8328      8330
      8328      8331      8331      8332      8331      8333      8331      8334
      8334      8335      8334      8336      8334      8337      8337      8338
      8337      8339      8337      8340      8340      8341      8340      8342
      8340      8343      8343      8344      8343      8345      8343      8346
      8346      8347      8346      8348      8346      8349      8349      8350
      8349      8351      8349      8352      8352      8353      8352      8354
      8352      8355      8355      8356      8355      8357      8355      8358
      8358      8359      8358      8360      8358      8361      8361      8362
      8361      8363      8361      8364      8364      8365      8364      8366
      8364      8367      8368      8369      8368      8370      8368      8371
      8368      8372      8376      8374      8374      8372      8374      8375
      8372      8373      8372      8377      8385      8384      8377      8378
      8377      8379      8377      8383      8383      8380      8380      8384
      8380      8381      8380      8382      8385      8386      8385      8387
      8385      8388      8388      8389      8388      8396      8388      8390
      8396      8397      8396      8398      8396      8399      8390      8391
      8391      8393      8391      8392      8393      8394      8393      8395
      8393      8405      8405      8406      8405      8407      8405      8408
      8408      8409      8408      8410      8408      8411      8411      8412
      8411      8413      8411      8414      8414      8415      8414      8416
      8414      8417      8417      8418      8417      8419      8417      8420
      8420      8421      8420      8422      8420      8423      8423      8424
      8423      8425      8425      8426      8425      8427      8427      8428
      8427      8429      8427      8430      8430      8431      8430      8432
      8430      8433      8433      8434      8433      8435      8433      8436
      8436      8437      8436      8438      8436      8439      8439      8440
      8439      8441      8439      8442      8442      8443      8442      8444
      8442      8445      8445      8446      8445      8447      8445      8448
      8448      8449      8448      8450      8448      8451      8399      8400
      8400      8402      8400      8401      8402      8403      8402      8404
      8402      8452      8452      8453      8452      8454      8452      8455
      8455      8456      8455      8457      8455      8458      8458      8459
      8458      8460      8458      8461      8461      8462      8461      8463
      8461      8464      8464      8465      8464      8466      8464      8467
      8467      8468      8467      8469      8467      8470      8470      8471
      8470      8472      8470      8473      8473      8474      8473      8475
      8473      8476      8476      8477      8476      8478      8476      8479
      8479      8480      8479      8481      8479      8482      8482      8483
      8482      8484      8482      8485      8485      8486      8485      8487
      8485      8488      8488      8489      8488      8490      8488      8491
      8491      8492      8491      8493      8491      8494      8495      8496
      8495      8497      8495      8498      8495      8499      8503      8501
      8501      8499      8501      8502      8499      8500      8499      8504
      8512      8511      8504      8505      8504      8506      8504      8510
      8510      8507      8507      8511      8507      8508      8507      8509
      8512      8513      8512      8514      8512      8515      8515      8516
      8515      8523      8515      8517      8523      8524      8523      8525
      8523      8526      8517      8518      8518      8520      8518      8519
      8520      8521      8520      8522      8520      8532      8532      8533
      8532      8534      8532      8535      8535      8536      8535      8537
      8535      8538      8538      8539      8538      8540      8538      8541
      8541      8542      8541      8543      8541      8544      8544      8545
      8544      8546      8544      8547      8547      8548      8547      8549
      8547      8550      8550      8551      8550      8552      8552      8553
      8552      8554      8554      8555      8554      8556      8554      8557
      8557      8558      8557      8559      8557      8560      8560      8561
      8560      8562      8560      8563      8563      8564      8563      8565
      8563      8566      8566      8567      8566      8568      8566      8569
      8569      8570      8569      8571      8569      8572      8572      8573
      8572      8574      8572      8575      8575      8576      8575      8577
      8575      8578      8526      8527      8527      8529      8527      8528
      8529      8530      8529      8531      8529      8579      8579      8580
      8579      8581      8579      8582      8582      8583      8582      8584
      8582      8585      8585      8586      8585      8587      8585      8588
      8588      8589      8588      8590      8588      8591      8591      8592
      8591      8593      8591      8594      8594      8595      8594      8596
      8594      8597      8597      8598      8597      8599      8597      8600
      8600      8601      8600      8602      8600      8603      8603      8604
      8603      8605      8603      8606      8606      8607      8606      8608
      8606      8609      8609      8610      8609      8611      8609      8612
      8612      8613      8612      8614      8612      8615      8615      8616
      8615      8617      8615      8618      8618      8619      8618      8620
      8618      8621      8622      8626      8622      8630      8622      8634
      8626      8627      8626      8628      8626      8629      8630      8631
      8630      8632      8630      8633      8634      8635      8634      8636
      8634      8637      8622      8623      8623      8624      8623      8625
      8623      8638      8638      8639      8638      8640      8638      8644
      8645      8646      8644      8641      8641      8645      8641      8642
      8641      8643      8646      8647      8646      8648      8646      8649
      8649      8650      8649      8657      8649      8651      8657      8658
      8657      8659      8657      8660      8651      8652      8652      8654
      8652      8653      8654      8655      8654      8656      8654      8666
      8666      8667      8666      8668      8666      8669      8669      8670
      8669      8671      8669      8672      8672      8673      8672      8674
      8672      8675      8675      8676      8675      8677      8675      8678
      8678      8679      8678      8680      8678      8681      8681      8682
      8681      8683      8681      8684      8684      8685      8684      8686
      8686      8687      8686      8688      8688      8689      8688      8690
      8688      8691      8691      8692      8691      8693      8691      8694
      8694      8695      8694      8696      8694      8697      8697      8698
      8697      8699      8697      8700      8700      8701      8700      8702
      8700      8703      8703      8704      8703      8705      8703      8706
      8706      8707      8706      8708      8706      8709      8709      8710
      8709      8711      8709      8712      8660      8661      8661      8663
      8661      8662      8663      8664      8663      8665      8663      8713
      8713      8714      8713      8715      8713      8716      8716      8717
      8716      8718      8716      8719      8719      8720      8719      8721
      8719      8722      8722      8723      8722      8724      8722      8725
      8725      8726      8725      8727      8725      8728      8728      8729
      8728      8730      8728      8731      8731      8732      8731      8733
      8731      8734      8734      8735      8734      8736      8734      8737
      8737      8738      8737      8739      8737      8740      8740      8741
      8740      8742      8740      8743      8743      8744      8743      8745
      8743      8746      8746      8747      8746      8748      8746      8749
      8749      8750      8749      8751      8749      8752      8752      8753
      8752      8754      8752      8755      8756      8757      8756      8758
      8756      8759      8756      8760      8764      8762      8762      8760
      8762      8763      8760      8761      8760      8765      8773      8772
      8765      8766      8765      8767      8765      8771      8771      8768
      8768      8772      8768      8769      8768      8770      8773      8774
      8773      8775      8773      8776      8776      8777      8776      8784
      8776      8778      8784      8785      8784      8786      8784      8787
      8778      8779      8779      8781      8779      8780      8781      8782
      8781      8783      8781      8793      8793      8794      8793      8795
      8793      8796      8796      8797      8796      8798      8796      8799
      8799      8800      8799      8801      8799      8802      8802      8803
      8802      8804      8802      8805      8805      8806      8805      8807
      8805      8808      8808      8809      8808      8810      8808      8811
      8811      8812      8811      8813      8813      8814      8813      8815
      8815      8816      8815      8817      8815      8818      8818      8819
      8818      8820      8818      8821      8821      8822      8821      8823
      8821      8824      8824      8825      8824      8826      8824      8827
      8827      8828      8827      8829      8827      8830      8830      8831
      8830      8832      8830      8833      8833      8834      8833      8835
      8833      8836      8836      8837      8836      8838      8836      8839
      8787      8788      8788      8790      8788      8789      8790      8791
      8790      8792      8790      8840      8840      8841      8840      8842
      8840      8843      8843      8844      8843      8845      8843      8846
      8846      8847      8846      8848      8846      8849      8849      8850
      8849      8851      8849      8852      8852      8853      8852      8854
      8852      8855      8855      8856      8855      8857      8855      8858
      8858      8859      8858      8860      8858      8861      8861      8862
      8861      8863      8861      8864      8864      8865      8864      8866
      8864      8867      8867      8868      8867      8869      8867      8870
      8870      8871      8870      8872      8870      8873      8873      8874
      8873      8875      8873      8876      8876      8877      8876      8878
      8876      8879      8879      8880      8879      8881      8879      8882
      8883      8887      8883      8891      8883      8895      8887      8888
      8887      8889      8887      8890      8891      8892      8891      8893
      8891      8894      8895      8896      8895      8897      8895      8898
      8883      8884      8884      8885      8884      8886      8884      8899
      8899      8900      8899      8901      8899      8905      8906      8907
      8905      8902      8902      8906      8902      8903      8902      8904
      8907      8908      8907      8909      8907      8910      8910      8911
      8910      8918      8910      8912      8918      8919      8918      8920
      8918      8921      8912      8913      8913      8915      8913      8914
      8915      8916      8915      8917      8915      8927      8927      8928
      8927      8929      8927      8930      8930      8931      8930      8932
      8930      8933      8933      8934      8933      8935      8933      8936
      8936      8937      8936      8938      8936      8939      8939      8940
      8939      8941      8939      8942      8942      8943      8942      8944
      8942      8945      8945      8946      8945      8947      8947      8948
      8947      8949      8949      8950      8949      8951      8949      8952
      8952      8953      8952      8954      8952      8955      8955      8956
      8955      8957      8955      8958      8958      8959      8958      8960
      8958      8961      8961      8962      8961      8963      8961      8964
      8964      8965      8964      8966      8964      8967      8967      8968
      8967      8969      8967      8970      8970      8971      8970      8972
      8970      8973      8921      8922      8922      8924      8922      8923
      8924      8925      8924      8926      8924      8974      8974      8975
      8974      8976      8974      8977      8977      8978      8977      8979
      8977      8980      8980      8981      8980      8982      8980      8983
      8983      8984      8983      8985      8983      8986      8986      8987
      8986      8988      8986      8989      8989      8990      8989      8991
      8989      8992      8992      8993      8992      8994      8992      8995
      8995      8996      8995      8997      8995      8998      8998      8999
      8998      9000      8998      9001      9001      9002      9001      9003
      9001      9004      9004      9005      9004      9006      9004      9007
      9007      9008      9007      9009      9007      9010      9010      9011
      9010      9012      9010      9013      9013      9014      9013      9015
      9013      9016      9017      9021      9017      9025      9017      9029
      9021      9022      9021      9023      9021      9024      9025      9026
      9025      9027      9025      9028      9029      9030      9029      9031
      9029      9032      9017      9018      9018      9019      9018      9020
      9018      9033      9033      9034      9033      9035      9033      9039
      9040      9041      9039      9036      9036      9040      9036      9037
      9036      9038      9041      9042      9041      9043      9041      9044
      9044      9045      9044      9052      9044      9046      9052      9053
      9052      9054      9052      9055      9046      9047      9047      9049
      9047      9048      9049      9050      9049      9051      9049      9061
      9061      9062      9061      9063      9061      9064      9064      9065
      9064      9066      9064      9067      9067      9068      9067      9069
      9067      9070      9070      9071      9070      9072      9070      9073
      9073      9074      9073      9075      9073      9076      9076      9077
      9076      9078      9076      9079      9079      9080      9079      9081
      9081      9082      9081      9083      9083      9084      9083      9085
      9083      9086      9086      9087      9086      9088      9086      9089
      9089      9090      9089      9091      9089      9092      9092      9093
      9092      9094      9092      9095      9095      9096      9095      9097
      9095      9098      9098      9099      9098      9100      9098      9101
      9101      9102      9101      9103      9101      9104      9104      9105
      9104      9106      9104      9107      9055      9056      9056      9058
      9056      9057      9058      9059      9058      9060      9058      9108
      9108      9109      9108      9110      9108      9111      9111      9112
      9111      9113      9111      9114      9114      9115      9114      9116
      9114      9117      9117      9118      9117      9119      9117      9120
      9120      9121      9120      9122      9120      9123      9123      9124
      9123      9125      9123      9126      9126      9127      9126      9128
      9126      9129      9129      9130      9129      9131      9129      9132
      9132      9133      9132      9134      9132      9135      9135      9136
      9135      9137      9135      9138      9138      9139      9138      9140
      9138      9141      9141      9142      9141      9143      9141      9144
      9144      9145      9144      9146      9144      9147      9147      9148
      9147      9149      9147      9150      9151      9155      9151      9159
      9151      9163      9155      9156      9155      9157      9155      9158
      9159      9160      9159      9161      9159      9162      9163      9164
      9163      9165      9163      9166      9151      9152      9152      9153
      9152      9154      9152      9167      9167      9168      9167      9169
      9167      9173      9174      9175      9173      9170      9170      9174
      9170      9171      9170      9172      9175      9176      9175      9177
      9175      9178      9178      9179      9178      9186      9178      9180
      9186      9187      9186      9188      9186      9189      9180      9181
      9181      9183      9181      9182      9183      9184      9183      9185
      9183      9195      9195      9196      9195      9197      9195      9198
      9198      9199      9198      9200      9198      9201      9201      9202
      9201      9203      9201      9204      9204      9205      9204      9206
      9204      9207      9207      9208      9207      9209      9207      9210
      9210      9211      9210      9212      9210      9213      9213      9214
      9213      9215      9215      9216      9215      9217      9217      9218
      9217      9219      9217      9220      9220      9221      9220      9222
      9220      9223      9223      9224      9223      9225      9223      9226
      9226      9227      9226      9228      9226      9229      9229      9230
      9229      9231      9229      9232      9232      9233      9232      9234
      9232      9235      9235      9236      9235      9237      9235      9238
      9238      9239      9238      9240      9238      9241      9189      9190
      9190      9192      9190      9191      9192      9193      9192      9194
      9192      9242      9242      9243      9242      9244      9242      9245
      9245      9246      9245      9247      9245      9248      9248      9249
      9248      9250      9248      9251      9251      9252      9251      9253
      9251      9254      9254      9255      9254      9256      9254      9257
      9257      9258      9257      9259      9257      9260      9260      9261
      9260      9262      9260      9263      9263      9264      9263      9265
      9263      9266      9266      9267      9266      9268      9266      9269
      9269      9270      9269      9271      9269      9272      9272      9273
      9272      9274      9272      9275      9275      9276      9275      9277
      9275      9278      9278      9279      9278      9280      9278      9281
      9281      9282      9281      9283      9281      9284      9285      9289
      9285      9293      9285      9297      9289      9290      9289      9291
      9289      9292      9293      9294      9293      9295      9293      9296
      9297      9298      9297      9299      9297      9300      9285      9286
      9286      9287      9286      9288      9286      9301      9301      9302
      9301      9303      9301      9307      9308      9309      9307      9304
      9304      9308      9304      9305      9304      9306      9309      9310
      9309      9311      9309      9312      9312      9313      9312      9320
      9312      9314      9320      9321      9320      9322      9320      9323
      9314      9315      9315      9317      9315      9316      9317      9318
      9317      9319      9317      9329      9329      9330      9329      9331
      9329      9332      9332      9333      9332      9334      9332      9335
      9335      9336      9335      9337      9335      9338      9338      9339
      9338      9340      9338      9341      9341      9342      9341      9343
      9341      9344      9344      9345      9344      9346      9344      9347
      9347      9348      9347      9349      9349      9350      9349      9351
      9351      9352      9351      9353      9351      9354      9354      9355
      9354      9356      9354      9357      9357      9358      9357      9359
      9357      9360      9360      9361      9360      9362      9360      9363
      9363      9364      9363      9365      9363      9366      9366      9367
      9366      9368      9366      9369      9369      9370      9369      9371
      9369      9372      9372      9373      9372      9374      9372      9375
      9323      9324      9324      9326      9324      9325      9326      9327
      9326      9328      9326      9376      9376      9377      9376      9378
      9376      9379      9379      9380      9379      9381      9379      9382
      9382      9383      9382      9384      9382      9385      9385      9386
      9385      9387      9385      9388      9388      9389      9388      9390
      9388      9391      9391      9392      9391      9393      9391      9394
      9394      9395      9394      9396      9394      9397      9397      9398
      9397      9399      9397      9400      9400      9401      9400      9402
      9400      9403      9403      9404      9403      9405      9403      9406
      9406      9407      9406      9408      9406      9409      9409      9410
      9409      9411      9409      9412      9412      9413      9412      9414
      9412      9415      9415      9416      9415      9417      9415      9418
      9419      9423      9419      9427      9419      9431      9423      9424
      9423      9425      9423      9426      9427      9428      9427      9429
      9427      9430      9431      9432      9431      9433      9431      9434
      9419      9420      9420      9421      9420      9422      9420      9435
      9435      9436      9435      9437      9435      9441      9442      9443
      9441      9438      9438      9442      9438      9439      9438      9440
      9443      9444      9443      9445      9443      9446      9446      9447
      9446      9454      9446      9448      9454      9455      9454      9456
      9454      9457      9448      9449      9449      9451      9449      9450
      9451      9452      9451      9453      9451      9463      9463      9464
      9463      9465      9463      9466      9466      9467      9466      9468
      9466      9469      9469      9470      9469      9471      9469      9472
      9472      9473      9472      9474      9472      9475      9475      9476
      9475      9477      9475      9478      9478      9479      9478      9480
      9478      9481      9481      9482      9481      9483      9483      9484
      9483      9485      9485      9486      9485      9487      9485      9488
      9488      9489      9488      9490      9488      9491      9491      9492
      9491      9493      9491      9494      9494      9495      9494      9496
      9494      9497      9497      9498      9497      9499      9497      9500
      9500      9501      9500      9502      9500      9503      9503      9504
      9503      9505      9503      9506      9506      9507      9506      9508
      9506      9509      9457      9458      9458      9460      9458      9459
      9460      9461      9460      9462      9460      9510      9510      9511
      9510      9512      9510      9513      9513      9514      9513      9515
      9513      9516      9516      9517      9516      9518      9516      9519
      9519      9520      9519      9521      9519      9522      9522      9523
      9522      9524      9522      9525      9525      9526      9525      9527
      9525      9528      9528      9529      9528      9530      9528      9531
      9531      9532      9531      9533      9531      9534      9534      9535
      9534      9536      9534      9537      9537      9538      9537      9539
      9537      9540      9540      9541      9540      9542      9540      9543
      9543      9544      9543      9545      9543      9546      9546      9547
      9546      9548      9546      9549      9549      9550      9549      9551
      9549      9552      9553      9554      9553      9555      9553      9556
      9553      9557      9561      9559      9559      9557      9559      9560
      9557      9558      9557      9562      9570      9569      9562      9563
      9562      9564      9562      9568      9568      9565      9565      9569
      9565      9566      9565      9567      9570      9571      9570      9572
      9570      9573      9573      9574      9573      9581      9573      9575
      9581      9582      9581      9583      9581      9584      9575      9576
      9576      9578      9576      9577      9578      9579      9578      9580
      9578      9590      9590      9591      9590      9592      9590      9593
      9593      9594      9593      9595      9593      9596      9596      9597
      9596      9598      9596      9599      9599      9600      9599      9601
      9599      9602      9602      9603      9602      9604      9602      9605
      9605      9606      9605      9607      9605      9608      9608      9609
      9608      9610      9610      9611      9610      9612      9612      9613
      9612      9614      9612      9615      9615      9616      9615      9617
      9615      9618      9618      9619      9618      9620      9618      9621
      9621      9622      9621      9623      9621      9624      9624      9625
      9624      9626      9624      9627      9627      9628      9627      9629
      9627      9630      9630      9631      9630      9632      9630      9633
      9633      9634      9633      9635      9633      9636      9584      9585
      9585      9587      9585      9586      9587      9588      9587      9589
      9587      9637      9637      9638      9637      9639      9637      9640
      9640      9641      9640      9642      9640      9643      9643      9644
      9643      9645      9643      9646      9646      9647      9646      9648
      9646      9649      9649      9650      9649      9651      9649      9652
      9652      9653      9652      9654      9652      9655      9655      9656
      9655      9657      9655      9658      9658      9659      9658      9660
      9658      9661      9661      9662      9661      9663      9661      9664
      9664      9665      9664      9666      9664      9667      9667      9668
      9667      9669      9667      9670      9670      9671      9670      9672
      9670      9673      9673      9674      9673      9675      9673      9676
      9676      9677      9676      9678      9676      9679      9680      9684
      9680      9688      9680      9692      9684      9685      9684      9686
      9684      9687      9688      9689      9688      9690      9688      9691
      9692      9693      9692      9694      9692      9695      9680      9681
      9681      9682      9681      9683      9681      9696      9696      9697
      9696      9698      9696      9702      9703      9704      9702      9699
      9699      9703      9699      9700      9699      9701      9704      9705
      9704      9706      9704      9707      9707      9708      9707      9715
      9707      9709      9715      9716      9715      9717      9715      9718
      9709      9710      9710      9712      9710      9711      9712      9713
      9712      9714      9712      9724      9724      9725      9724      9726
      9724      9727      9727      9728      9727      9729      9727      9730
      9730      9731      9730      9732      9730      9733      9733      9734
      9733      9735      9733      9736      9736      9737      9736      9738
      9736      9739      9739      9740      9739      9741      9739      9742
      9742      9743      9742      9744      9744      9745      9744      9746
      9746      9747      9746      9748      9746      9749      9749      9750
      9749      9751      9749      9752      9752      9753      9752      9754
      9752      9755      9755      9756      9755      9757      9755      9758
      9758      9759      9758      9760      9758      9761      9761      9762
      9761      9763      9761      9764      9764      9765      9764      9766
      9764      9767      9767      9768      9767      9769      9767      9770
      9718      9719      9719      9721      9719      9720      9721      9722
      9721      9723      9721      9771      9771      9772      9771      9773
      9771      9774      9774      9775      9774      9776      9774      9777
      9777      9778      9777      9779      9777      9780      9780      9781
      9780      9782      9780      9783      9783      9784      9783      9785
      9783      9786      9786      9787      9786      9788      9786      9789
      9789      9790      9789      9791      9789      9792      9792      9793
      9792      9794      9792      9795      9795      9796      9795      9797
      9795      9798      9798      9799      9798      9800      9798      9801
      9801      9802      9801      9803      9801      9804      9804      9805
      9804      9806      9804      9807      9807      9808      9807      9809
      9807      9810      9810      9811      9810      9812      9810      9813
      9814      9818      9814      9822      9814      9826      9818      9819
      9818      9820      9818      9821      9822      9823      9822      9824
      9822      9825      9826      9827      9826      9828      9826      9829
      9814      9815      9815      9816      9815      9817      9815      9830
      9830      9831      9830      9832      9830      9836      9837      9838
      9836      9833      9833      9837      9833      9834      9833      9835
      9838      9839      9838      9840      9838      9841      9841      9842
      9841      9849      9841      9843      9849      9850      9849      9851
      9849      9852      9843      9844      9844      9846      9844      9845
      9846      9847      9846      9848      9846      9858      9858      9859
      9858      9860      9858      9861      9861      9862      9861      9863
      9861      9864      9864      9865      9864      9866      9864      9867
      9867      9868      9867      9869      9867      9870      9870      9871
      9870      9872      9870      9873      9873      9874      9873      9875
      9873      9876      9876      9877      9876      9878      9878      9879
      9878      9880      9880      9881      9880      9882      9880      9883
      9883      9884      9883      9885      9883      9886      9886      9887
      9886      9888      9886      9889      9889      9890      9889      9891
      9889      9892      9892      9893      9892      9894      9892      9895
      9895      9896      9895      9897      9895      9898      9898      9899
      9898      9900      9898      9901      9901      9902      9901      9903
      9901      9904      9852      9853      9853      9855      9853      9854
      9855      9856      9855      9857      9855      9905      9905      9906
      9905      9907      9905      9908      9908      9909      9908      9910
      9908      9911      9911      9912      9911      9913      9911      9914
      9914      9915      9914      9916      9914      9917      9917      9918
      9917      9919      9917      9920      9920      9921      9920      9922
      9920      9923      9923      9924      9923      9925      9923      9926
      9926      9927      9926      9928      9926      9929      9929      9930
      9929      9931      9929      9932      9932      9933      9932      9934
      9932      9935      9935      9936      9935      9937      9935      9938
      9938      9939      9938      9940      9938      9941      9941      9942
      9941      9943      9941      9944      9944      9945      9944      9946
      9944      9947      9948      9952      9948      9956      9948      9960
      9952      9953      9952      9954      9952      9955      9956      9957
      9956      9958      9956      9959      9960      9961      9960      9962
      9960      9963      9948      9949      9949      9950      9949      9951
      9949      9964      9964      9965      9964      9966      9964      9970
      9971      9972      9970      9967      9967      9971      9967      9968
      9967      9969      9972      9973      9972      9974      9972      9975
      9975      9976      9975      9983      9975      9977      9983      9984
      9983      9985      9983      9986      9977      9978      9978      9980
      9978      9979      9980      9981      9980      9982      9980      9992
      9992      9993      9992      9994      9992      9995      9995      9996
      9995      9997      9995      9998      9998      9999      9998     10000
      9998     10001     10001     10002     10001     10003     10001     10004
     10004     10005     10004     10006     10004     10007     10007     10008
     10007     10009     10007     10010     10010     10011     10010     10012
     10012     10013     10012     10014     10014     10015     10014     10016
     10014     10017     10017     10018     10017     10019     10017     10020
     10020     10021     10020     10022     10020     10023     10023     10024
     10023     10025     10023     10026     10026     10027     10026     10028
     10026     10029     10029     10030     10029     10031     10029     10032
     10032     10033     10032     10034     10032     10035     10035     10036
     10035     10037     10035     10038      9986      9987      9987      9989
      9987      9988      9989      9990      9989      9991      9989     10039
     10039     10040     10039     10041     10039     10042     10042     10043
     10042     10044     10042     10045     10045     10046     10045     10047
     10045     10048     10048     10049     10048     10050     10048     10051
     10051     10052     10051     10053     10051     10054     10054     10055
     10054     10056     10054     10057     10057     10058     10057     10059
     10057     10060     10060     10061     10060     10062     10060     10063
     10063     10064     10063     10065     10063     10066     10066     10067
     10066     10068     10066     10069     10069     10070     10069     10071
     10069     10072     10072     10073     10072     10074     10072     10075
     10075     10076     10075     10077     10075     10078     10078     10079
     10078     10080     10078     10081     10082     10086     10082     10090
     10082     10094     10086     10087     10086     10088     10086     10089
     10090     10091     10090     10092     10090     10093     10094     10095
     10094     10096     10094     10097     10082     10083     10083     10084
     10083     10085     10083     10098     10098     10099     10098     10100
     10098     10104     10105     10106     10104     10101     10101     10105
     10101     10102     10101     10103     10106     10107     10106     10108
     10106     10109     10109     10110     10109     10117     10109     10111
     10117     10118     10117     10119     10117     10120     10111     10112
     10112     10114     10112     10113     10114     10115     10114     10116
     10114     10126     10126     10127     10126     10128     10126     10129
     10129     10130     10129     10131     10129     10132     10132     10133
     10132     10134     10132     10135     10135     10136     10135     10137
     10135     10138     10138     10139     10138     10140     10138     10141
     10141     10142     10141     10143     10141     10144     10144     10145
     10144     10146     10146     10147     10146     10148     10148     10149
     10148     10150     10148     10151     10151     10152     10151     10153
     10151     10154     10154     10155     10154     10156     10154     10157
     10157     10158     10157     10159     10157     10160     10160     10161
     10160     10162     10160     10163     10163     10164     10163     10165
     10163     10166     10166     10167     10166     10168     10166     10169
     10169     10170     10169     10171     10169     10172     10120     10121
     10121     10123     10121     10122     10123     10124     10123     10125
     10123     10173     10173     10174     10173     10175     10173     10176
     10176     10177     10176     10178     10176     10179     10179     10180
     10179     10181     10179     10182     10182     10183     10182     10184
     10182     10185     10185     10186     10185     10187     10185     10188
     10188     10189     10188     10190     10188     10191     10191     10192
     10191     10193     10191     10194     10194     10195     10194     10196
     10194     10197     10197     10198     10197     10199     10197     10200
     10200     10201     10200     10202     10200     10203     10203     10204
     10203     10205     10203     10206     10206     10207     10206     10208
     10206     10209     10209     10210     10209     10211     10209     10212
     10212     10213     10212     10214     10212     10215     10216     10217
     10216     10218     10216     10219     10216     10220     10224     10222
     10222     10220     10222     10223     10220     10221     10220     10225
     10233     10232     10225     10226     10225     10227     10225     10231
     10231     10228     10228     10232     10228     10229     10228     10230
     10233     10234     10233     10235     10233     10236     10236     10237
     10236     10244     10236     10238     10244     10245     10244     10246
     10244     10247     10238     10239     10239     10241     10239     10240
     10241     10242     10241     10243     10241     10253     10253     10254
     10253     10255     10253     10256     10256     10257     10256     10258
     10256     10259     10259     10260     10259     10261     10259     10262
     10262     10263     10262     10264     10262     10265     10265     10266
     10265     10267     10265     10268     10268     10269     10268     10270
     10268     10271     10271     10272     10271     10273     10273     10274
     10273     10275     10275     10276     10275     10277     10275     10278
     10278     10279     10278     10280     10278     10281     10281     10282
     10281     10283     10281     10284     10284     10285     10284     10286
     10284     10287     10287     10288     10287     10289     10287     10290
     10290     10291     10290     10292     10290     10293     10293     10294
     10293     10295     10293     10296     10296     10297     10296     10298
     10296     10299     10247     10248     10248     10250     10248     10249
     10250     10251     10250     10252     10250     10300     10300     10301
     10300     10302     10300     10303     10303     10304     10303     10305
     10303     10306     10306     10307     10306     10308     10306     10309
     10309     10310     10309     10311     10309     10312     10312     10313
     10312     10314     10312     10315     10315     10316     10315     10317
     10315     10318     10318     10319     10318     10320     10318     10321
     10321     10322     10321     10323     10321     10324     10324     10325
     10324     10326     10324     10327     10327     10328     10327     10329
     10327     10330     10330     10331     10330     10332     10330     10333
     10333     10334     10333     10335     10333     10336     10336     10337
     10336     10338     10336     10339     10339     10340     10339     10341
     10339     10342     10343     10347     10343     10351     10343     10355
     10347     10348     10347     10349     10347     10350     10351     10352
     10351     10353     10351     10354     10355     10356     10355     10357
     10355     10358     10343     10344     10344     10345     10344     10346
     10344     10359     10359     10360     10359     10361     10359     10365
     10366     10367     10365     10362     10362     10366     10362     10363
     10362     10364     10367     10368     10367     10369     10367     10370
     10370     10371     10370     10378     10370     10372     10378     10379
     10378     10380     10378     10381     10372     10373     10373     10375
     10373     10374     10375     10376     10375     10377     10375     10387
     10387     10388     10387     10389     10387     10390     10390     10391
     10390     10392     10390     10393     10393     10394     10393     10395
     10393     10396     10396     10397     10396     10398     10396     10399
     10399     10400     10399     10401     10399     10402     10402     10403
     10402     10404     10402     10405     10405     10406     10405     10407
     10407     10408     10407     10409     10409     10410     10409     10411
     10409     10412     10412     10413     10412     10414     10412     10415
     10415     10416     10415     10417     10415     10418     10418     10419
     10418     10420     10418     10421     10421     10422     10421     10423
     10421     10424     10424     10425     10424     10426     10424     10427
     10427     10428     10427     10429     10427     10430     10430     10431
     10430     10432     10430     10433     10381     10382     10382     10384
     10382     10383     10384     10385     10384     10386     10384     10434
     10434     10435     10434     10436     10434     10437     10437     10438
     10437     10439     10437     10440     10440     10441     10440     10442
     10440     10443     10443     10444     10443     10445     10443     10446
     10446     10447     10446     10448     10446     10449     10449     10450
     10449     10451     10449     10452     10452     10453     10452     10454
     10452     10455     10455     10456     10455     10457     10455     10458
     10458     10459     10458     10460     10458     10461     10461     10462
     10461     10463     10461     10464     10464     10465     10464     10466
     10464     10467     10467     10468     10467     10469     10467     10470
     10470     10471     10470     10472     10470     10473     10473     10474
     10473     10475     10473     10476     10477     10481     10477     10485
     10477     10489     10481     10482     10481     10483     10481     10484
     10485     10486     10485     10487     10485     10488     10489     10490
     10489     10491     10489     10492     10477     10478     10478     10479
     10478     10480     10478     10493     10493     10494     10493     10495
     10493     10499     10500     10501     10499     10496     10496     10500
     10496     10497     10496     10498     10501     10502     10501     10503
     10501     10504     10504     10505     10504     10512     10504     10506
     10512     10513     10512     10514     10512     10515     10506     10507
     10507     10509     10507     10508     10509     10510     10509     10511
     10509     10521     10521     10522     10521     10523     10521     10524
     10524     10525     10524     10526     10524     10527     10527     10528
     10527     10529     10527     10530     10530     10531     10530     10532
     10530     10533     10533     10534     10533     10535     10533     10536
     10536     10537     10536     10538     10536     10539     10539     10540
     10539     10541     10541     10542     10541     10543     10543     10544
     10543     10545     10543     10546     10546     10547     10546     10548
     10546     10549     10549     10550     10549     10551     10549     10552
     10552     10553     10552     10554     10552     10555     10555     10556
     10555     10557     10555     10558     10558     10559     10558     10560
     10558     10561     10561     10562     10561     10563     10561     10564
     10564     10565     10564     10566     10564     10567     10515     10516
     10516     10518     10516     10517     10518     10519     10518     10520
     10518     10568     10568     10569     10568     10570     10568     10571
     10571     10572     10571     10573     10571     10574     10574     10575
     10574     10576     10574     10577     10577     10578     10577     10579
     10577     10580     10580     10581     10580     10582     10580     10583
     10583     10584     10583     10585     10583     10586     10586     10587
     10586     10588     10586     10589     10589     10590     10589     10591
     10589     10592     10592     10593     10592     10594     10592     10595
     10595     10596     10595     10597     10595     10598     10598     10599
     10598     10600     10598     10601     10601     10602     10601     10603
     10601     10604     10604     10605     10604     10606     10604     10607
     10607     10608     10607     10609     10607     10610     10611     10615
     10611     10619     10611     10623     10615     10616     10615     10617
     10615     10618     10619     10620     10619     10621     10619     10622
     10623     10624     10623     10625     10623     10626     10611     10612
     10612     10613     10612     10614     10612     10627     10627     10628
     10627     10629     10627     10633     10634     10635     10633     10630
     10630     10634     10630     10631     10630     10632     10635     10636
     10635     10637     10635     10638     10638     10639     10638     10646
     10638     10640     10646     10647     10646     10648     10646     10649
     10640     10641     10641     10643     10641     10642     10643     10644
     10643     10645     10643     10655     10655     10656     10655     10657
     10655     10658     10658     10659     10658     10660     10658     10661
     10661     10662     10661     10663     10661     10664     10664     10665
     10664     10666     10664     10667     10667     10668     10667     10669
     10667     10670     10670     10671     10670     10672     10670     10673
     10673     10674     10673     10675     10675     10676     10675     10677
     10677     10678     10677     10679     10677     10680     10680     10681
     10680     10682     10680     10683     10683     10684     10683     10685
     10683     10686     10686     10687     10686     10688     10686     10689
     10689     10690     10689     10691     10689     10692     10692     10693
     10692     10694     10692     10695     10695     10696     10695     10697
     10695     10698     10698     10699     10698     10700     10698     10701
     10649     10650     10650     10652     10650     10651     10652     10653
     10652     10654     10652     10702     10702     10703     10702     10704
     10702     10705     10705     10706     10705     10707     10705     10708
     10708     10709     10708     10710     10708     10711     10711     10712
     10711     10713     10711     10714     10714     10715     10714     10716
     10714     10717     10717     10718     10717     10719     10717     10720
     10720     10721     10720     10722     10720     10723     10723     10724
     10723     10725     10723     10726     10726     10727     10726     10728
     10726     10729     10729     10730     10729     10731     10729     10732
     10732     10733     10732     10734     10732     10735     10735     10736
     10735     10737     10735     10738     10738     10739     10738     10740
     10738     10741     10741     10742     10741     10743     10741     10744
     10745     10749     10745     10753     10745     10757     10749     10750
     10749     10751     10749     10752     10753     10754     10753     10755
     10753     10756     10757     10758     10757     10759     10757     10760
     10745     10746     10746     10747     10746     10748     10746     10761
     10761     10762     10761     10763     10761     10767     10768     10769
     10767     10764     10764     10768     10764     10765     10764     10766
     10769     10770     10769     10771     10769     10772     10772     10773
     10772     10780     10772     10774     10780     10781     10780     10782
     10780     10783     10774     10775     10775     10777     10775     10776
     10777     10778     10777     10779     10777     10789     10789     10790
     10789     10791     10789     10792     10792     10793     10792     10794
     10792     10795     10795     10796     10795     10797     10795     10798
     10798     10799     10798     10800     10798     10801     10801     10802
     10801     10803     10801     10804     10804     10805     10804     10806
     10804     10807     10807     10808     10807     10809     10809     10810
     10809     10811     10811     10812     10811     10813     10811     10814
     10814     10815     10814     10816     10814     10817     10817     10818
     10817     10819     10817     10820     10820     10821     10820     10822
     10820     10823     10823     10824     10823     10825     10823     10826
     10826     10827     10826     10828     10826     10829     10829     10830
     10829     10831     10829     10832     10832     10833     10832     10834
     10832     10835     10783     10784     10784     10786     10784     10785
     10786     10787     10786     10788     10786     10836     10836     10837
     10836     10838     10836     10839     10839     10840     10839     10841
     10839     10842     10842     10843     10842     10844     10842     10845
     10845     10846     10845     10847     10845     10848     10848     10849
     10848     10850     10848     10851     10851     10852     10851     10853
     10851     10854     10854     10855     10854     10856     10854     10857
     10857     10858     10857     10859     10857     10860     10860     10861
     10860     10862     10860     10863     10863     10864     10863     10865
     10863     10866     10866     10867     10866     10868     10866     10869
     10869     10870     10869     10871     10869     10872     10872     10873
     10872     10874     10872     10875     10875     10876     10875     10877
     10875     10878     10879     10883     10879     10887     10879     10891
     10883     10884     10883     10885     10883     10886     10887     10888
     10887     10889     10887     10890     10891     10892     10891     10893
     10891     10894     10879     10880     10880     10881     10880     10882
     10880     10895     10895     10896     10895     10897     10895     10901
     10902     10903     10901     10898     10898     10902     10898     10899
     10898     10900     10903     10904     10903     10905     10903     10906
     10906     10907     10906     10914     10906     10908     10914     10915
     10914     10916     10914     10917     10908     10909     10909     10911
     10909     10910     10911     10912     10911     10913     10911     10923
     10923     10924     10923     10925     10923     10926     10926     10927
     10926     10928     10926     10929     10929     10930     10929     10931
     10929     10932     10932     10933     10932     10934     10932     10935
     10935     10936     10935     10937     10935     10938     10938     10939
     10938     10940     10938     10941     10941     10942     10941     10943
     10943     10944     10943     10945     10945     10946     10945     10947
     10945     10948     10948     10949     10948     10950     10948     10951
     10951     10952     10951     10953     10951     10954     10954     10955
     10954     10956     10954     10957     10957     10958     10957     10959
     10957     10960     10960     10961     10960     10962     10960     10963
     10963     10964     10963     10965     10963     10966     10966     10967
     10966     10968     10966     10969     10917     10918     10918     10920
     10918     10919     10920     10921     10920     10922     10920     10970
     10970     10971     10970     10972     10970     10973     10973     10974
     10973     10975     10973     10976     10976     10977     10976     10978
     10976     10979     10979     10980     10979     10981     10979     10982
     10982     10983     10982     10984     10982     10985     10985     10986
     10985     10987     10985     10988     10988     10989     10988     10990
     10988     10991     10991     10992     10991     10993     10991     10994
     10994     10995     10994     10996     10994     10997     10997     10998
     10997     10999     10997     11000     11000     11001     11000     11002
     11000     11003     11003     11004     11003     11005     11003     11006
     11006     11007     11006     11008     11006     11009     11009     11010
     11009     11011     11009     11012     11013     11017     11013     11021
     11013     11025     11017     11018     11017     11019     11017     11020
     11021     11022     11021     11023     11021     11024     11025     11026
     11025     11027     11025     11028     11013     11014     11014     11015
     11014     11016     11014     11029     11029     11030     11029     11031
     11029     11035     11036     11037     11035     11032     11032     11036
     11032     11033     11032     11034     11037     11038     11037     11039
     11037     11040     11040     11041     11040     11048     11040     11042
     11048     11049     11048     11050     11048     11051     11042     11043
     11043     11045     11043     11044     11045     11046     11045     11047
     11045     11057     11057     11058     11057     11059     11057     11060
     11060     11061     11060     11062     11060     11063     11063     11064
     11063     11065     11063     11066     11066     11067     11066     11068
     11066     11069     11069     11070     11069     11071     11069     11072
     11072     11073     11072     11074     11072     11075     11075     11076
     11075     11077     11077     11078     11077     11079     11079     11080
     11079     11081     11079     11082     11082     11083     11082     11084
     11082     11085     11085     11086     11085     11087     11085     11088
     11088     11089     11088     11090     11088     11091     11091     11092
     11091     11093     11091     11094     11094     11095     11094     11096
     11094     11097     11097     11098     11097     11099     11097     11100
     11100     11101     11100     11102     11100     11103     11051     11052
     11052     11054     11052     11053     11054     11055     11054     11056
     11054     11104     11104     11105     11104     11106     11104     11107
     11107     11108     11107     11109     11107     11110     11110     11111
     11110     11112     11110     11113     11113     11114     11113     11115
     11113     11116     11116     11117     11116     11118     11116     11119
     11119     11120     11119     11121     11119     11122     11122     11123
     11122     11124     11122     11125     11125     11126     11125     11127
     11125     11128     11128     11129     11128     11130     11128     11131
     11131     11132     11131     11133     11131     11134     11134     11135
     11134     11136     11134     11137     11137     11138     11137     11139
     11137     11140     11140     11141     11140     11142     11140     11143
     11143     11144     11143     11145     11143     11146     11147     11151
     11147     11155     11147     11159     11151     11152     11151     11153
     11151     11154     11155     11156     11155     11157     11155     11158
     11159     11160     11159     11161     11159     11162     11147     11148
     11148     11149     11148     11150     11148     11163     11163     11164
     11163     11165     11163     11169     11170     11171     11169     11166
     11166     11170     11166     11167     11166     11168     11171     11172
     11171     11173     11171     11174     11174     11175     11174     11182
     11174     11176     11182     11183     11182     11184     11182     11185
     11176     11177     11177     11179     11177     11178     11179     11180
     11179     11181     11179     11191     11191     11192     11191     11193
     11191     11194     11194     11195     11194     11196     11194     11197
     11197     11198     11197     11199     11197     11200     11200     11201
     11200     11202     11200     11203     11203     11204     11203     11205
     11203     11206     11206     11207     11206     11208     11206     11209
     11209     11210     11209     11211     11211     11212     11211     11213
     11213     11214     11213     11215     11213     11216     11216     11217
     11216     11218     11216     11219     11219     11220     11219     11221
     11219     11222     11222     11223     11222     11224     11222     11225
     11225     11226     11225     11227     11225     11228     11228     11229
     11228     11230     11228     11231     11231     11232     11231     11233
     11231     11234     11234     11235     11234     11236     11234     11237
     11185     11186     11186     11188     11186     11187     11188     11189
     11188     11190     11188     11238     11238     11239     11238     11240
     11238     11241     11241     11242     11241     11243     11241     11244
     11244     11245     11244     11246     11244     11247     11247     11248
     11247     11249     11247     11250     11250     11251     11250     11252
     11250     11253     11253     11254     11253     11255     11253     11256
     11256     11257     11256     11258     11256     11259     11259     11260
     11259     11261     11259     11262     11262     11263     11262     11264
     11262     11265     11265     11266     11265     11267     11265     11268
     11268     11269     11268     11270     11268     11271     11271     11272
     11271     11273     11271     11274     11274     11275     11274     11276
     11274     11277     11277     11278     11277     11279     11277     11280
     11281     11285     11281     11289     11281     11293     11285     11286
     11285     11287     11285     11288     11289     11290     11289     11291
     11289     11292     11293     11294     11293     11295     11293     11296
     11281     11282     11282     11283     11282     11284     11282     11297
     11297     11298     11297     11299     11297     11303     11304     11305
     11303     11300     11300     11304     11300     11301     11300     11302
     11305     11306     11305     11307     11305     11308     11308     11309
     11308     11316     11308     11310     11316     11317     11316     11318
     11316     11319     11310     11311     11311     11313     11311     11312
     11313     11314     11313     11315     11313     11325     11325     11326
     11325     11327     11325     11328     11328     11329     11328     11330
     11328     11331     11331     11332     11331     11333     11331     11334
     11334     11335     11334     11336     11334     11337     11337     11338
     11337     11339     11337     11340     11340     11341     11340     11342
     11340     11343     11343     11344     11343     11345     11345     11346
     11345     11347     11347     11348     11347     11349     11347     11350
     11350     11351     11350     11352     11350     11353     11353     11354
     11353     11355     11353     11356     11356     11357     11356     11358
     11356     11359     11359     11360     11359     11361     11359     11362
     11362     11363     11362     11364     11362     11365     11365     11366
     11365     11367     11365     11368     11368     11369     11368     11370
     11368     11371     11319     11320     11320     11322     11320     11321
     11322     11323     11322     11324     11322     11372     11372     11373
     11372     11374     11372     11375     11375     11376     11375     11377
     11375     11378     11378     11379     11378     11380     11378     11381
     11381     11382     11381     11383     11381     11384     11384     11385
     11384     11386     11384     11387     11387     11388     11387     11389
     11387     11390     11390     11391     11390     11392     11390     11393
     11393     11394     11393     11395     11393     11396     11396     11397
     11396     11398     11396     11399     11399     11400     11399     11401
     11399     11402     11402     11403     11402     11404     11402     11405
     11405     11406     11405     11407     11405     11408     11408     11409
     11408     11410     11408     11411     11411     11412     11411     11413
     11411     11414     11415     11416     11415     11417     11415     11418
     11415     11419     11423     11421     11421     11419     11421     11422
     11419     11420     11419     11424     11432     11431     11424     11425
     11424     11426     11424     11430     11430     11427     11427     11431
     11427     11428     11427     11429     11432     11433     11432     11434
     11432     11435     11435     11436     11435     11443     11435     11437
     11443     11444     11443     11445     11443     11446     11437     11438
     11438     11440     11438     11439     11440     11441     11440     11442
     11440     11452     11452     11453     11452     11454     11452     11455
     11455     11456     11455     11457     11455     11458     11458     11459
     11458     11460     11458     11461     11461     11462     11461     11463
     11461     11464     11464     11465     11464     11466     11464     11467
     11467     11468     11467     11469     11467     11470     11470     11471
     11470     11472     11472     11473     11472     11474     11474     11475
     11474     11476     11474     11477     11477     11478     11477     11479
     11477     11480     11480     11481     11480     11482     11480     11483
     11483     11484     11483     11485     11483     11486     11486     11487
     11486     11488     11486     11489     11489     11490     11489     11491
     11489     11492     11492     11493     11492     11494     11492     11495
     11495     11496     11495     11497     11495     11498     11446     11447
     11447     11449     11447     11448     11449     11450     11449     11451
     11449     11499     11499     11500     11499     11501     11499     11502
     11502     11503     11502     11504     11502     11505     11505     11506
     11505     11507     11505     11508     11508     11509     11508     11510
     11508     11511     11511     11512     11511     11513     11511     11514
     11514     11515     11514     11516     11514     11517     11517     11518
     11517     11519     11517     11520     11520     11521     11520     11522
     11520     11523     11523     11524     11523     11525     11523     11526
     11526     11527     11526     11528     11526     11529     11529     11530
     11529     11531     11529     11532     11532     11533     11532     11534
     11532     11535     11535     11536     11535     11537     11535     11538
     11538     11539     11538     11540     11538     11541     11542     11546
     11542     11550     11542     11554     11546     11547     11546     11548
     11546     11549     11550     11551     11550     11552     11550     11553
     11554     11555     11554     11556     11554     11557     11542     11543
     11543     11544     11543     11545     11543     11558     11558     11559
     11558     11560     11558     11564     11565     11566     11564     11561
     11561     11565     11561     11562     11561     11563     11566     11567
     11566     11568     11566     11569     11569     11570     11569     11577
     11569     11571     11577     11578     11577     11579     11577     11580
     11571     11572     11572     11574     11572     11573     11574     11575
     11574     11576     11574     11586     11586     11587     11586     11588
     11586     11589     11589     11590     11589     11591     11589     11592
     11592     11593     11592     11594     11592     11595     11595     11596
     11595     11597     11595     11598     11598     11599     11598     11600
     11598     11601     11601     11602     11601     11603     11601     11604
     11604     11605     11604     11606     11606     11607     11606     11608
     11608     11609     11608     11610     11608     11611     11611     11612
     11611     11613     11611     11614     11614     11615     11614     11616
     11614     11617     11617     11618     11617     11619     11617     11620
     11620     11621     11620     11622     11620     11623     11623     11624
     11623     11625     11623     11626     11626     11627     11626     11628
     11626     11629     11629     11630     11629     11631     11629     11632
     11580     11581     11581     11583     11581     11582     11583     11584
     11583     11585     11583     11633     11633     11634     11633     11635
     11633     11636     11636     11637     11636     11638     11636     11639
     11639     11640     11639     11641     11639     11642     11642     11643
     11642     11644     11642     11645     11645     11646     11645     11647
     11645     11648     11648     11649     11648     11650     11648     11651
     11651     11652     11651     11653     11651     11654     11654     11655
     11654     11656     11654     11657     11657     11658     11657     11659
     11657     11660     11660     11661     11660     11662     11660     11663
     11663     11664     11663     11665     11663     11666     11666     11667
     11666     11668     11666     11669     11669     11670     11669     11671
     11669     11672     11672     11673     11672     11674     11672     11675
     11676     11680     11676     11684     11676     11688     11680     11681
     11680     11682     11680     11683     11684     11685     11684     11686
     11684     11687     11688     11689     11688     11690     11688     11691
     11676     11677     11677     11678     11677     11679     11677     11692
     11692     11693     11692     11694     11692     11698     11699     11700
     11698     11695     11695     11699     11695     11696     11695     11697
     11700     11701     11700     11702     11700     11703     11703     11704
     11703     11711     11703     11705     11711     11712     11711     11713
     11711     11714     11705     11706     11706     11708     11706     11707
     11708     11709     11708     11710     11708     11720     11720     11721
     11720     11722     11720     11723     11723     11724     11723     11725
     11723     11726     11726     11727     11726     11728     11726     11729
     11729     11730     11729     11731     11729     11732     11732     11733
     11732     11734     11732     11735     11735     11736     11735     11737
     11735     11738     11738     11739     11738     11740     11740     11741
     11740     11742     11742     11743     11742     11744     11742     11745
     11745     11746     11745     11747     11745     11748     11748     11749
     11748     11750     11748     11751     11751     11752     11751     11753
     11751     11754     11754     11755     11754     11756     11754     11757
     11757     11758     11757     11759     11757     11760     11760     11761
     11760     11762     11760     11763     11763     11764     11763     11765
     11763     11766     11714     11715     11715     11717     11715     11716
     11717     11718     11717     11719     11717     11767     11767     11768
     11767     11769     11767     11770     11770     11771     11770     11772
     11770     11773     11773     11774     11773     11775     11773     11776
     11776     11777     11776     11778     11776     11779     11779     11780
     11779     11781     11779     11782     11782     11783     11782     11784
     11782     11785     11785     11786     11785     11787     11785     11788
     11788     11789     11788     11790     11788     11791     11791     11792
     11791     11793     11791     11794     11794     11795     11794     11796
     11794     11797     11797     11798     11797     11799     11797     11800
     11800     11801     11800     11802     11800     11803     11803     11804
     11803     11805     11803     11806     11806     11807     11806     11808
     11806     11809     11810     11814     11810     11818     11810     11822
     11814     11815     11814     11816     11814     11817     11818     11819
     11818     11820     11818     11821     11822     11823     11822     11824
     11822     11825     11810     11811     11811     11812     11811     11813
     11811     11826     11826     11827     11826     11828     11826     11832
     11833     11834     11832     11829     11829     11833     11829     11830
     11829     11831     11834     11835     11834     11836     11834     11837
     11837     11838     11837     11845     11837     11839     11845     11846
     11845     11847     11845     11848     11839     11840     11840     11842
     11840     11841     11842     11843     11842     11844     11842     11854
     11854     11855     11854     11856     11854     11857     11857     11858
     11857     11859     11857     11860     11860     11861     11860     11862
     11860     11863     11863     11864     11863     11865     11863     11866
     11866     11867     11866     11868     11866     11869     11869     11870
     11869     11871     11869     11872     11872     11873     11872     11874
     11874     11875     11874     11876     11876     11877     11876     11878
     11876     11879     11879     11880     11879     11881     11879     11882
     11882     11883     11882     11884     11882     11885     11885     11886
     11885     11887     11885     11888     11888     11889     11888     11890
     11888     11891     11891     11892     11891     11893     11891     11894
     11894     11895     11894     11896     11894     11897     11897     11898
     11897     11899     11897     11900     11848     11849     11849     11851
     11849     11850     11851     11852     11851     11853     11851     11901
     11901     11902     11901     11903     11901     11904     11904     11905
     11904     11906     11904     11907     11907     11908     11907     11909
     11907     11910     11910     11911     11910     11912     11910     11913
     11913     11914     11913     11915     11913     11916     11916     11917
     11916     11918     11916     11919     11919     11920     11919     11921
     11919     11922     11922     11923     11922     11924     11922     11925
     11925     11926     11925     11927     11925     11928     11928     11929
     11928     11930     11928     11931     11931     11932     11931     11933
     11931     11934     11934     11935     11934     11936     11934     11937
     11937     11938     11937     11939     11937     11940     11940     11941
     11940     11942     11940     11943     11944     11948     11944     11952
     11944     11956     11948     11949     11948     11950     11948     11951
     11952     11953     11952     11954     11952     11955     11956     11957
     11956     11958     11956     11959     11944     11945     11945     11946
     11945     11947     11945     11960     11960     11961     11960     11962
     11960     11966     11967     11968     11966     11963     11963     11967
     11963     11964     11963     11965     11968     11969     11968     11970
     11968     11971     11971     11972     11971     11979     11971     11973
     11979     11980     11979     11981     11979     11982     11973     11974
     11974     11976     11974     11975     11976     11977     11976     11978
     11976     11988     11988     11989     11988     11990     11988     11991
     11991     11992     11991     11993     11991     11994     11994     11995
     11994     11996     11994     11997     11997     11998     11997     11999
     11997     12000     12000     12001     12000     12002     12000     12003
     12003     12004     12003     12005     12003     12006     12006     12007
     12006     12008     12008     12009     12008     12010     12010     12011
     12010     12012     12010     12013     12013     12014     12013     12015
     12013     12016     12016     12017     12016     12018     12016     12019
     12019     12020     12019     12021     12019     12022     12022     12023
     12022     12024     12022     12025     12025     12026     12025     12027
     12025     12028     12028     12029     12028     12030     12028     12031
     12031     12032     12031     12033     12031     12034     11982     11983
     11983     11985     11983     11984     11985     11986     11985     11987
     11985     12035     12035     12036     12035     12037     12035     12038
     12038     12039     12038     12040     12038     12041     12041     12042
     12041     12043     12041     12044     12044     12045     12044     12046
     12044     12047     12047     12048     12047     12049     12047     12050
     12050     12051     12050     12052     12050     12053     12053     12054
     12053     12055     12053     12056     12056     12057     12056     12058
     12056     12059     12059     12060     12059     12061     12059     12062
     12062     12063     12062     12064     12062     12065     12065     12066
     12065     12067     12065     12068     12068     12069     12068     12070
     12068     12071     12071     12072     12071     12073     12071     12074
     12074     12075     12074     12076     12074     12077     12078     12082
     12078     12086     12078     12090     12082     12083     12082     12084
     12082     12085     12086     12087     12086     12088     12086     12089
     12090     12091     12090     12092     12090     12093     12078     12079
     12079     12080     12079     12081     12079     12094     12094     12095
     12094     12096     12094     12100     12101     12102     12100     12097
     12097     12101     12097     12098     12097     12099     12102     12103
     12102     12104     12102     12105     12105     12106     12105     12113
     12105     12107     12113     12114     12113     12115     12113     12116
     12107     12108     12108     12110     12108     12109     12110     12111
     12110     12112     12110     12122     12122     12123     12122     12124
     12122     12125     12125     12126     12125     12127     12125     12128
     12128     12129     12128     12130     12128     12131     12131     12132
     12131     12133     12131     12134     12134     12135     12134     12136
     12134     12137     12137     12138     12137     12139     12137     12140
     12140     12141     12140     12142     12142     12143     12142     12144
     12144     12145     12144     12146     12144     12147     12147     12148
     12147     12149     12147     12150     12150     12151     12150     12152
     12150     12153     12153     12154     12153     12155     12153     12156
     12156     12157     12156     12158     12156     12159     12159     12160
     12159     12161     12159     12162     12162     12163     12162     12164
     12162     12165     12165     12166     12165     12167     12165     12168
     12116     12117     12117     12119     12117     12118     12119     12120
     12119     12121     12119     12169     12169     12170     12169     12171
     12169     12172     12172     12173     12172     12174     12172     12175
     12175     12176     12175     12177     12175     12178     12178     12179
     12178     12180     12178     12181     12181     12182     12181     12183
     12181     12184     12184     12185     12184     12186     12184     12187
     12187     12188     12187     12189     12187     12190     12190     12191
     12190     12192     12190     12193     12193     12194     12193     12195
     12193     12196     12196     12197     12196     12198     12196     12199
     12199     12200     12199     12201     12199     12202     12202     12203
     12202     12204     12202     12205     12205     12206     12205     12207
     12205     12208     12208     12209     12208     12210     12208     12211
     12212     12213     12212     12214     12212     12215     12212     12216
     12220     12218     12218     12216     12218     12219     12216     12217
     12216     12221     12229     12228     12221     12222     12221     12223
     12221     12227     12227     12224     12224     12228     12224     12225
     12224     12226     12229     12230     12229     12231     12229     12232
     12232     12233     12232     12240     12232     12234     12240     12241
     12240     12242     12240     12243     12234     12235     12235     12237
     12235     12236     12237     12238     12237     12239     12237     12249
     12249     12250     12249     12251     12249     12252     12252     12253
     12252     12254     12252     12255     12255     12256     12255     12257
     12255     12258     12258     12259     12258     12260     12258     12261
     12261     12262     12261     12263     12261     12264     12264     12265
     12264     12266     12264     12267     12267     12268     12267     12269
     12269     12270     12269     12271     12271     12272     12271     12273
     12271     12274     12274     12275     12274     12276     12274     12277
     12277     12278     12277     12279     12277     12280     12280     12281
     12280     12282     12280     12283     12283     12284     12283     12285
     12283     12286     12286     12287     12286     12288     12286     12289
     12289     12290     12289     12291     12289     12292     12292     12293
     12292     12294     12292     12295     12243     12244     12244     12246
     12244     12245     12246     12247     12246     12248     12246     12296
     12296     12297     12296     12298     12296     12299     12299     12300
     12299     12301     12299     12302     12302     12303     12302     12304
     12302     12305     12305     12306     12305     12307     12305     12308
     12308     12309     12308     12310     12308     12311     12311     12312
     12311     12313     12311     12314     12314     12315     12314     12316
     12314     12317     12317     12318     12317     12319     12317     12320
     12320     12321     12320     12322     12320     12323     12323     12324
     12323     12325     12323     12326     12326     12327     12326     12328
     12326     12329     12329     12330     12329     12331     12329     12332
     12332     12333     12332     12334     12332     12335     12335     12336
     12335     12337     12335     12338     12339     12343     12339     12347
     12339     12351     12343     12344     12343     12345     12343     12346
     12347     12348     12347     12349     12347     12350     12351     12352
     12351     12353     12351     12354     12339     12340     12340     12341
     12340     12342     12340     12355     12355     12356     12355     12357
     12355     12361     12362     12363     12361     12358     12358     12362
     12358     12359     12358     12360     12363     12364     12363     12365
     12363     12366     12366     12367     12366     12374     12366     12368
     12374     12375     12374     12376     12374     12377     12368     12369
     12369     12371     12369     12370     12371     12372     12371     12373
     12371     12383     12383     12384     12383     12385     12383     12386
     12386     12387     12386     12388     12386     12389     12389     12390
     12389     12391     12389     12392     12392     12393     12392     12394
     12392     12395     12395     12396     12395     12397     12395     12398
     12398     12399     12398     12400     12398     12401     12401     12402
     12401     12403     12403     12404     12403     12405     12405     12406
     12405     12407     12405     12408     12408     12409     12408     12410
     12408     12411     12411     12412     12411     12413     12411     12414
     12414     12415     12414     12416     12414     12417     12417     12418
     12417     12419     12417     12420     12420     12421     12420     12422
     12420     12423     12423     12424     12423     12425     12423     12426
     12426     12427     12426     12428     12426     12429     12377     12378
     12378     12380     12378     12379     12380     12381     12380     12382
     12380     12430     12430     12431     12430     12432     12430     12433
     12433     12434     12433     12435     12433     12436     12436     12437
     12436     12438     12436     12439     12439     12440     12439     12441
     12439     12442     12442     12443     12442     12444     12442     12445
     12445     12446     12445     12447     12445     12448     12448     12449
     12448     12450     12448     12451     12451     12452     12451     12453
     12451     12454     12454     12455     12454     12456     12454     12457
     12457     12458     12457     12459     12457     12460     12460     12461
     12460     12462     12460     12463     12463     12464     12463     12465
     12463     12466     12466     12467     12466     12468     12466     12469
     12469     12470     12469     12471     12469     12472     12473     12477
     12473     12481     12473     12485     12477     12478     12477     12479
     12477     12480     12481     12482     12481     12483     12481     12484
     12485     12486     12485     12487     12485     12488     12473     12474
     12474     12475     12474     12476     12474     12489     12489     12490
     12489     12491     12489     12495     12496     12497     12495     12492
     12492     12496     12492     12493     12492     12494     12497     12498
     12497     12499     12497     12500     12500     12501     12500     12508
     12500     12502     12508     12509     12508     12510     12508     12511
     12502     12503     12503     12505     12503     12504     12505     12506
     12505     12507     12505     12517     12517     12518     12517     12519
     12517     12520     12520     12521     12520     12522     12520     12523
     12523     12524     12523     12525     12523     12526     12526     12527
     12526     12528     12526     12529     12529     12530     12529     12531
     12529     12532     12532     12533     12532     12534     12532     12535
     12535     12536     12535     12537     12537     12538     12537     12539
     12539     12540     12539     12541     12539     12542     12542     12543
     12542     12544     12542     12545     12545     12546     12545     12547
     12545     12548     12548     12549     12548     12550     12548     12551
     12551     12552     12551     12553     12551     12554     12554     12555
     12554     12556     12554     12557     12557     12558     12557     12559
     12557     12560     12560     12561     12560     12562     12560     12563
     12511     12512     12512     12514     12512     12513     12514     12515
     12514     12516     12514     12564     12564     12565     12564     12566
     12564     12567     12567     12568     12567     12569     12567     12570
     12570     12571     12570     12572     12570     12573     12573     12574
     12573     12575     12573     12576     12576     12577     12576     12578
     12576     12579     12579     12580     12579     12581     12579     12582
     12582     12583     12582     12584     12582     12585     12585     12586
     12585     12587     12585     12588     12588     12589     12588     12590
     12588     12591     12591     12592     12591     12593     12591     12594
     12594     12595     12594     12596     12594     12597     12597     12598
     12597     12599     12597     12600     12600     12601     12600     12602
     12600     12603     12603     12604     12603     12605     12603     12606
     12607     12611     12607     12615     12607     12619     12611     12612
     12611     12613     12611     12614     12615     12616     12615     12617
     12615     12618     12619     12620     12619     12621     12619     12622
     12607     12608     12608     12609     12608     12610     12608     12623
     12623     12624     12623     12625     12623     12629     12630     12631
     12629     12626     12626     12630     12626     12627     12626     12628
     12631     12632     12631     12633     12631     12634     12634     12635
     12634     12642     12634     12636     12642     12643     12642     12644
     12642     12645     12636     12637     12637     12639     12637     12638
     12639     12640     12639     12641     12639     12651     12651     12652
     12651     12653     12651     12654     12654     12655     12654     12656
     12654     12657     12657     12658     12657     12659     12657     12660
     12660     12661     12660     12662     12660     12663     12663     12664
     12663     12665     12663     12666     12666     12667     12666     12668
     12666     12669     12669     12670     12669     12671     12671     12672
     12671     12673     12673     12674     12673     12675     12673     12676
     12676     12677     12676     12678     12676     12679     12679     12680
     12679     12681     12679     12682     12682     12683     12682     12684
     12682     12685     12685     12686     12685     12687     12685     12688
     12688     12689     12688     12690     12688     12691     12691     12692
     12691     12693     12691     12694     12694     12695     12694     12696
     12694     12697     12645     12646     12646     12648     12646     12647
     12648     12649     12648     12650     12648     12698     12698     12699
     12698     12700     12698     12701     12701     12702     12701     12703
     12701     12704     12704     12705     12704     12706     12704     12707
     12707     12708     12707     12709     12707     12710     12710     12711
     12710     12712     12710     12713     12713     12714     12713     12715
     12713     12716     12716     12717     12716     12718     12716     12719
     12719     12720     12719     12721     12719     12722     12722     12723
     12722     12724     12722     12725     12725     12726     12725     12727
     12725     12728     12728     12729     12728     12730     12728     12731
     12731     12732     12731     12733     12731     12734     12734     12735
     12734     12736     12734     12737     12737     12738     12737     12739
     12737     12740     12741     12745     12741     12749     12741     12753
     12745     12746     12745     12747     12745     12748     12749     12750
     12749     12751     12749     12752     12753     12754     12753     12755
     12753     12756     12741     12742     12742     12743     12742     12744
     12742     12757     12757     12758     12757     12759     12757     12763
     12764     12765     12763     12760     12760     12764     12760     12761
     12760     12762     12765     12766     12765     12767     12765     12768
     12768     12769     12768     12776     12768     12770     12776     12777
     12776     12778     12776     12779     12770     12771     12771     12773
     12771     12772     12773     12774     12773     12775     12773     12785
     12785     12786     12785     12787     12785     12788     12788     12789
     12788     12790     12788     12791     12791     12792     12791     12793
     12791     12794     12794     12795     12794     12796     12794     12797
     12797     12798     12797     12799     12797     12800     12800     12801
     12800     12802     12800     12803     12803     12804     12803     12805
     12805     12806     12805     12807     12807     12808     12807     12809
     12807     12810     12810     12811     12810     12812     12810     12813
     12813     12814     12813     12815     12813     12816     12816     12817
     12816     12818     12816     12819     12819     12820     12819     12821
     12819     12822     12822     12823     12822     12824     12822     12825
     12825     12826     12825     12827     12825     12828     12828     12829
     12828     12830     12828     12831     12779     12780     12780     12782
     12780     12781     12782     12783     12782     12784     12782     12832
     12832     12833     12832     12834     12832     12835     12835     12836
     12835     12837     12835     12838     12838     12839     12838     12840
     12838     12841     12841     12842     12841     12843     12841     12844
     12844     12845     12844     12846     12844     12847     12847     12848
     12847     12849     12847     12850     12850     12851     12850     12852
     12850     12853     12853     12854     12853     12855     12853     12856
     12856     12857     12856     12858     12856     12859     12859     12860
     12859     12861     12859     12862     12862     12863     12862     12864
     12862     12865     12865     12866     12865     12867     12865     12868
     12868     12869     12868     12870     12868     12871     12871     12872
     12871     12873     12871     12874     12875     12879     12875     12883
     12875     12887     12879     12880     12879     12881     12879     12882
     12883     12884     12883     12885     12883     12886     12887     12888
     12887     12889     12887     12890     12875     12876     12876     12877
     12876     12878     12876     12891     12891     12892     12891     12893
     12891     12897     12898     12899     12897     12894     12894     12898
     12894     12895     12894     12896     12899     12900     12899     12901
     12899     12902     12902     12903     12902     12910     12902     12904
     12910     12911     12910     12912     12910     12913     12904     12905
     12905     12907     12905     12906     12907     12908     12907     12909
     12907     12919     12919     12920     12919     12921     12919     12922
     12922     12923     12922     12924     12922     12925     12925     12926
     12925     12927     12925     12928     12928     12929     12928     12930
     12928     12931     12931     12932     12931     12933     12931     12934
     12934     12935     12934     12936     12934     12937     12937     12938
     12937     12939     12939     12940     12939     12941     12941     12942
     12941     12943     12941     12944     12944     12945     12944     12946
     12944     12947     12947     12948     12947     12949     12947     12950
     12950     12951     12950     12952     12950     12953     12953     12954
     12953     12955     12953     12956     12956     12957     12956     12958
     12956     12959     12959     12960     12959     12961     12959     12962
     12962     12963     12962     12964     12962     12965     12913     12914
     12914     12916     12914     12915     12916     12917     12916     12918
     12916     12966     12966     12967     12966     12968     12966     12969
     12969     12970     12969     12971     12969     12972     12972     12973
     12972     12974     12972     12975     12975     12976     12975     12977
     12975     12978     12978     12979     12978     12980     12978     12981
     12981     12982     12981     12983     12981     12984     12984     12985
     12984     12986     12984     12987     12987     12988     12987     12989
     12987     12990     12990     12991     12990     12992     12990     12993
     12993     12994     12993     12995     12993     12996     12996     12997
     12996     12998     12996     12999     12999     13000     12999     13001
     12999     13002     13002     13003     13002     13004     13002     13005
     13005     13006     13005     13007     13005     13008     13009     13013
     13009     13017     13009     13021     13013     13014     13013     13015
     13013     13016     13017     13018     13017     13019     13017     13020
     13021     13022     13021     13023     13021     13024     13009     13010
     13010     13011     13010     13012     13010     13025     13025     13026
     13025     13027     13025     13031     13032     13033     13031     13028
     13028     13032     13028     13029     13028     13030     13033     13034
     13033     13035     13033     13036     13036     13037     13036     13044
     13036     13038     13044     13045     13044     13046     13044     13047
     13038     13039     13039     13041     13039     13040     13041     13042
     13041     13043     13041     13053     13053     13054     13053     13055
     13053     13056     13056     13057     13056     13058     13056     13059
     13059     13060     13059     13061     13059     13062     13062     13063
     13062     13064     13062     13065     13065     13066     13065     13067
     13065     13068     13068     13069     13068     13070     13068     13071
     13071     13072     13071     13073     13073     13074     13073     13075
     13075     13076     13075     13077     13075     13078     13078     13079
     13078     13080     13078     13081     13081     13082     13081     13083
     13081     13084     13084     13085     13084     13086     13084     13087
     13087     13088     13087     13089     13087     13090     13090     13091
     13090     13092     13090     13093     13093     13094     13093     13095
     13093     13096     13096     13097     13096     13098     13096     13099
     13047     13048     13048     13050     13048     13049     13050     13051
     13050     13052     13050     13100     13100     13101     13100     13102
     13100     13103     13103     13104     13103     13105     13103     13106
     13106     13107     13106     13108     13106     13109     13109     13110
     13109     13111     13109     13112     13112     13113     13112     13114
     13112     13115     13115     13116     13115     13117     13115     13118
     13118     13119     13118     13120     13118     13121     13121     13122
     13121     13123     13121     13124     13124     13125     13124     13126
     13124     13127     13127     13128     13127     13129     13127     13130
     13130     13131     13130     13132     13130     13133     13133     13134
     13133     13135     13133     13136     13136     13137     13136     13138
     13136     13139     13139     13140     13139     13141     13139     13142
     13143     13147     13143     13151     13143     13155     13147     13148
     13147     13149     13147     13150     13151     13152     13151     13153
     13151     13154     13155     13156     13155     13157     13155     13158
     13143     13144     13144     13145     13144     13146     13144     13159
     13159     13160     13159     13161     13159     13165     13166     13167
     13165     13162     13162     13166     13162     13163     13162     13164
     13167     13168     13167     13169     13167     13170     13170     13171
     13170     13178     13170     13172     13178     13179     13178     13180
     13178     13181     13172     13173     13173     13175     13173     13174
     13175     13176     13175     13177     13175     13187     13187     13188
     13187     13189     13187     13190     13190     13191     13190     13192
     13190     13193     13193     13194     13193     13195     13193     13196
     13196     13197     13196     13198     13196     13199     13199     13200
     13199     13201     13199     13202     13202     13203     13202     13204
     13202     13205     13205     13206     13205     13207     13207     13208
     13207     13209     13209     13210     13209     13211     13209     13212
     13212     13213     13212     13214     13212     13215     13215     13216
     13215     13217     13215     13218     13218     13219     13218     13220
     13218     13221     13221     13222     13221     13223     13221     13224
     13224     13225     13224     13226     13224     13227     13227     13228
     13227     13229     13227     13230     13230     13231     13230     13232
     13230     13233     13181     13182     13182     13184     13182     13183
     13184     13185     13184     13186     13184     13234     13234     13235
     13234     13236     13234     13237     13237     13238     13237     13239
     13237     13240     13240     13241     13240     13242     13240     13243
     13243     13244     13243     13245     13243     13246     13246     13247
     13246     13248     13246     13249     13249     13250     13249     13251
     13249     13252     13252     13253     13252     13254     13252     13255
     13255     13256     13255     13257     13255     13258     13258     13259
     13258     13260     13258     13261     13261     13262     13261     13263
     13261     13264     13264     13265     13264     13266     13264     13267
     13267     13268     13267     13269     13267     13270     13270     13271
     13270     13272     13270     13273     13273     13274     13273     13275
     13273     13276     13277     13281     13277     13285     13277     13289
     13281     13282     13281     13283     13281     13284     13285     13286
     13285     13287     13285     13288     13289     13290     13289     13291
     13289     13292     13277     13278     13278     13279     13278     13280
     13278     13293     13293     13294     13293     13295     13293     13299
     13300     13301     13299     13296     13296     13300     13296     13297
     13296     13298     13301     13302     13301     13303     13301     13304
     13304     13305     13304     13312     13304     13306     13312     13313
     13312     13314     13312     13315     13306     13307     13307     13309
     13307     13308     13309     13310     13309     13311     13309     13321
     13321     13322     13321     13323     13321     13324     13324     13325
     13324     13326     13324     13327     13327     13328     13327     13329
     13327     13330     13330     13331     13330     13332     13330     13333
     13333     13334     13333     13335     13333     13336     13336     13337
     13336     13338     13336     13339     13339     13340     13339     13341
     13341     13342     13341     13343     13343     13344     13343     13345
     13343     13346     13346     13347     13346     13348     13346     13349
     13349     13350     13349     13351     13349     13352     13352     13353
     13352     13354     13352     13355     13355     13356     13355     13357
     13355     13358     13358     13359     13358     13360     13358     13361
     13361     13362     13361     13363     13361     13364     13364     13365
     13364     13366     13364     13367     13315     13316     13316     13318
     13316     13317     13318     13319     13318     13320     13318     13368
     13368     13369     13368     13370     13368     13371     13371     13372
     13371     13373     13371     13374     13374     13375     13374     13376
     13374     13377     13377     13378     13377     13379     13377     13380
     13380     13381     13380     13382     13380     13383     13383     13384
     13383     13385     13383     13386     13386     13387     13386     13388
     13386     13389     13389     13390     13389     13391     13389     13392
     13392     13393     13392     13394     13392     13395     13395     13396
     13395     13397     13395     13398     13398     13399     13398     13400
     13398     13401     13401     13402     13401     13403     13401     13404
     13404     13405     13404     13406     13404     13407     13407     13408
     13407     13409     13407     13410     13411     13415     13411     13419
     13411     13423     13415     13416     13415     13417     13415     13418
     13419     13420     13419     13421     13419     13422     13423     13424
     13423     13425     13423     13426     13411     13412     13412     13413
     13412     13414     13412     13427     13427     13428     13427     13429
     13427     13433     13434     13435     13433     13430     13430     13434
     13430     13431     13430     13432     13435     13436     13435     13437
     13435     13438     13438     13439     13438     13446     13438     13440
     13446     13447     13446     13448     13446     13449     13440     13441
     13441     13443     13441     13442     13443     13444     13443     13445
     13443     13455     13455     13456     13455     13457     13455     13458
     13458     13459     13458     13460     13458     13461     13461     13462
     13461     13463     13461     13464     13464     13465     13464     13466
     13464     13467     13467     13468     13467     13469     13467     13470
     13470     13471     13470     13472     13470     13473     13473     13474
     13473     13475     13475     13476     13475     13477     13477     13478
     13477     13479     13477     13480     13480     13481     13480     13482
     13480     13483     13483     13484     13483     13485     13483     13486
     13486     13487     13486     13488     13486     13489     13489     13490
     13489     13491     13489     13492     13492     13493     13492     13494
     13492     13495     13495     13496     13495     13497     13495     13498
     13498     13499     13498     13500     13498     13501     13449     13450
     13450     13452     13450     13451     13452     13453     13452     13454
     13452     13502     13502     13503     13502     13504     13502     13505
     13505     13506     13505     13507     13505     13508     13508     13509
     13508     13510     13508     13511     13511     13512     13511     13513
     13511     13514     13514     13515     13514     13516     13514     13517
     13517     13518     13517     13519     13517     13520     13520     13521
     13520     13522     13520     13523     13523     13524     13523     13525
     13523     13526     13526     13527     13526     13528     13526     13529
     13529     13530     13529     13531     13529     13532     13532     13533
     13532     13534     13532     13535     13535     13536     13535     13537
     13535     13538     13538     13539     13538     13540     13538     13541
     13541     13542     13541     13543     13541     13544     13545     13546
     13545     13547     13545     13548     13545     13549     13553     13551
     13551     13549     13551     13552     13549     13550     13549     13554
     13562     13561     13554     13555     13554     13556     13554     13560
     13560     13557     13557     13561     13557     13558     13557     13559
     13562     13563     13562     13564     13562     13565     13565     13566
     13565     13573     13565     13567     13573     13574     13573     13575
     13573     13576     13567     13568     13568     13570     13568     13569
     13570     13571     13570     13572     13570     13582     13582     13583
     13582     13584     13582     13585     13585     13586     13585     13587
     13585     13588     13588     13589     13588     13590     13588     13591
     13591     13592     13591     13593     13591     13594     13594     13595
     13594     13596     13594     13597     13597     13598     13597     13599
     13597     13600     13600     13601     13600     13602     13602     13603
     13602     13604     13604     13605     13604     13606     13604     13607
     13607     13608     13607     13609     13607     13610     13610     13611
     13610     13612     13610     13613     13613     13614     13613     13615
     13613     13616     13616     13617     13616     13618     13616     13619
     13619     13620     13619     13621     13619     13622     13622     13623
     13622     13624     13622     13625     13625     13626     13625     13627
     13625     13628     13576     13577     13577     13579     13577     13578
     13579     13580     13579     13581     13579     13629     13629     13630
     13629     13631     13629     13632     13632     13633     13632     13634
     13632     13635     13635     13636     13635     13637     13635     13638
     13638     13639     13638     13640     13638     13641     13641     13642
     13641     13643     13641     13644     13644     13645     13644     13646
     13644     13647     13647     13648     13647     13649     13647     13650
     13650     13651     13650     13652     13650     13653     13653     13654
     13653     13655     13653     13656     13656     13657     13656     13658
     13656     13659     13659     13660     13659     13661     13659     13662
     13662     13663     13662     13664     13662     13665     13665     13666
     13665     13667     13665     13668     13668     13669     13668     13670
     13668     13671     13672     13676     13672     13680     13672     13684
     13676     13677     13676     13678     13676     13679     13680     13681
     13680     13682     13680     13683     13684     13685     13684     13686
     13684     13687     13672     13673     13673     13674     13673     13675
     13673     13688     13688     13689     13688     13690     13688     13694
     13695     13696     13694     13691     13691     13695     13691     13692
     13691     13693     13696     13697     13696     13698     13696     13699
     13699     13700     13699     13707     13699     13701     13707     13708
     13707     13709     13707     13710     13701     13702     13702     13704
     13702     13703     13704     13705     13704     13706     13704     13716
     13716     13717     13716     13718     13716     13719     13719     13720
     13719     13721     13719     13722     13722     13723     13722     13724
     13722     13725     13725     13726     13725     13727     13725     13728
     13728     13729     13728     13730     13728     13731     13731     13732
     13731     13733     13731     13734     13734     13735     13734     13736
     13736     13737     13736     13738     13738     13739     13738     13740
     13738     13741     13741     13742     13741     13743     13741     13744
     13744     13745     13744     13746     13744     13747     13747     13748
     13747     13749     13747     13750     13750     13751     13750     13752
     13750     13753     13753     13754     13753     13755     13753     13756
     13756     13757     13756     13758     13756     13759     13759     13760
     13759     13761     13759     13762     13710     13711     13711     13713
     13711     13712     13713     13714     13713     13715     13713     13763
     13763     13764     13763     13765     13763     13766     13766     13767
     13766     13768     13766     13769     13769     13770     13769     13771
     13769     13772     13772     13773     13772     13774     13772     13775
     13775     13776     13775     13777     13775     13778     13778     13779
     13778     13780     13778     13781     13781     13782     13781     13783
     13781     13784     13784     13785     13784     13786     13784     13787
     13787     13788     13787     13789     13787     13790     13790     13791
     13790     13792     13790     13793     13793     13794     13793     13795
     13793     13796     13796     13797     13796     13798     13796     13799
     13799     13800     13799     13801     13799     13802     13802     13803
     13802     13804     13802     13805     13806     13807     13806     13808
     13806     13809     13806     13810     13814     13812     13812     13810
     13812     13813     13810     13811     13810     13815     13823     13822
     13815     13816     13815     13817     13815     13821     13821     13818
     13818     13822     13818     13819     13818     13820     13823     13824
     13823     13825     13823     13826     13826     13827     13826     13834
     13826     13828     13834     13835     13834     13836     13834     13837
     13828     13829     13829     13831     13829     13830     13831     13832
     13831     13833     13831     13843     13843     13844     13843     13845
     13843     13846     13846     13847     13846     13848     13846     13849
     13849     13850     13849     13851     13849     13852     13852     13853
     13852     13854     13852     13855     13855     13856     13855     13857
     13855     13858     13858     13859     13858     13860     13858     13861
     13861     13862     13861     13863     13863     13864     13863     13865
     13865     13866     13865     13867     13865     13868     13868     13869
     13868     13870     13868     13871     13871     13872     13871     13873
     13871     13874     13874     13875     13874     13876     13874     13877
     13877     13878     13877     13879     13877     13880     13880     13881
     13880     13882     13880     13883     13883     13884     13883     13885
     13883     13886     13886     13887     13886     13888     13886     13889
     13837     13838     13838     13840     13838     13839     13840     13841
     13840     13842     13840     13890     13890     13891     13890     13892
     13890     13893     13893     13894     13893     13895     13893     13896
     13896     13897     13896     13898     13896     13899     13899     13900
     13899     13901     13899     13902     13902     13903     13902     13904
     13902     13905     13905     13906     13905     13907     13905     13908
     13908     13909     13908     13910     13908     13911     13911     13912
     13911     13913     13911     13914     13914     13915     13914     13916
     13914     13917     13917     13918     13917     13919     13917     13920
     13920     13921     13920     13922     13920     13923     13923     13924
     13923     13925     13923     13926     13926     13927     13926     13928
     13926     13929     13929     13930     13929     13931     13929     13932
     13933     13937     13933     13941     13933     13945     13937     13938
     13937     13939     13937     13940     13941     13942     13941     13943
     13941     13944     13945     13946     13945     13947     13945     13948
     13933     13934     13934     13935     13934     13936     13934     13949
     13949     13950     13949     13951     13949     13955     13956     13957
     13955     13952     13952     13956     13952     13953     13952     13954
     13957     13958     13957     13959     13957     13960     13960     13961
     13960     13968     13960     13962     13968     13969     13968     13970
     13968     13971     13962     13963     13963     13965     13963     13964
     13965     13966     13965     13967     13965     13977     13977     13978
     13977     13979     13977     13980     13980     13981     13980     13982
     13980     13983     13983     13984     13983     13985     13983     13986
     13986     13987     13986     13988     13986     13989     13989     13990
     13989     13991     13989     13992     13992     13993     13992     13994
     13992     13995     13995     13996     13995     13997     13997     13998
     13997     13999     13999     14000     13999     14001     13999     14002
     14002     14003     14002     14004     14002     14005     14005     14006
     14005     14007     14005     14008     14008     14009     14008     14010
     14008     14011     14011     14012     14011     14013     14011     14014
     14014     14015     14014     14016     14014     14017     14017     14018
     14017     14019     14017     14020     14020     14021     14020     14022
     14020     14023     13971     13972     13972     13974     13972     13973
     13974     13975     13974     13976     13974     14024     14024     14025
     14024     14026     14024     14027     14027     14028     14027     14029
     14027     14030     14030     14031     14030     14032     14030     14033
     14033     14034     14033     14035     14033     14036     14036     14037
     14036     14038     14036     14039     14039     14040     14039     14041
     14039     14042     14042     14043     14042     14044     14042     14045
     14045     14046     14045     14047     14045     14048     14048     14049
     14048     14050     14048     14051     14051     14052     14051     14053
     14051     14054     14054     14055     14054     14056     14054     14057
     14057     14058     14057     14059     14057     14060     14060     14061
     14060     14062     14060     14063     14063     14064     14063     14065
     14063     14066     14067     14068     14067     14069     14067     14070
     14067     14071     14075     14073     14073     14071     14073     14074
     14071     14072     14071     14076     14084     14083     14076     14077
     14076     14078     14076     14082     14082     14079     14079     14083
     14079     14080     14079     14081     14084     14085     14084     14086
     14084     14087     14087     14088     14087     14095     14087     14089
     14095     14096     14095     14097     14095     14098     14089     14090
     14090     14092     14090     14091     14092     14093     14092     14094
     14092     14104     14104     14105     14104     14106     14104     14107
     14107     14108     14107     14109     14107     14110     14110     14111
     14110     14112     14110     14113     14113     14114     14113     14115
     14113     14116     14116     14117     14116     14118     14116     14119
     14119     14120     14119     14121     14119     14122     14122     14123
     14122     14124     14124     14125     14124     14126     14126     14127
     14126     14128     14126     14129     14129     14130     14129     14131
     14129     14132     14132     14133     14132     14134     14132     14135
     14135     14136     14135     14137     14135     14138     14138     14139
     14138     14140     14138     14141     14141     14142     14141     14143
     14141     14144     14144     14145     14144     14146     14144     14147
     14147     14148     14147     14149     14147     14150     14098     14099
     14099     14101     14099     14100     14101     14102     14101     14103
     14101     14151     14151     14152     14151     14153     14151     14154
     14154     14155     14154     14156     14154     14157     14157     14158
     14157     14159     14157     14160     14160     14161     14160     14162
     14160     14163     14163     14164     14163     14165     14163     14166
     14166     14167     14166     14168     14166     14169     14169     14170
     14169     14171     14169     14172     14172     14173     14172     14174
     14172     14175     14175     14176     14175     14177     14175     14178
     14178     14179     14178     14180     14178     14181     14181     14182
     14181     14183     14181     14184     14184     14185     14184     14186
     14184     14187     14187     14188     14187     14189     14187     14190
     14190     14191     14190     14192     14190     14193     14194     14198
     14194     14202     14194     14206     14198     14199     14198     14200
     14198     14201     14202     14203     14202     14204     14202     14205
     14206     14207     14206     14208     14206     14209     14194     14195
     14195     14196     14195     14197     14195     14210     14210     14211
     14210     14212     14210     14216     14217     14218     14216     14213
     14213     14217     14213     14214     14213     14215     14218     14219
     14218     14220     14218     14221     14221     14222     14221     14229
     14221     14223     14229     14230     14229     14231     14229     14232
     14223     14224     14224     14226     14224     14225     14226     14227
     14226     14228     14226     14238     14238     14239     14238     14240
     14238     14241     14241     14242     14241     14243     14241     14244
     14244     14245     14244     14246     14244     14247     14247     14248
     14247     14249     14247     14250     14250     14251     14250     14252
     14250     14253     14253     14254     14253     14255     14253     14256
     14256     14257     14256     14258     14258     14259     14258     14260
     14260     14261     14260     14262     14260     14263     14263     14264
     14263     14265     14263     14266     14266     14267     14266     14268
     14266     14269     14269     14270     14269     14271     14269     14272
     14272     14273     14272     14274     14272     14275     14275     14276
     14275     14277     14275     14278     14278     14279     14278     14280
     14278     14281     14281     14282     14281     14283     14281     14284
     14232     14233     14233     14235     14233     14234     14235     14236
     14235     14237     14235     14285     14285     14286     14285     14287
     14285     14288     14288     14289     14288     14290     14288     14291
     14291     14292     14291     14293     14291     14294     14294     14295
     14294     14296     14294     14297     14297     14298     14297     14299
     14297     14300     14300     14301     14300     14302     14300     14303
     14303     14304     14303     14305     14303     14306     14306     14307
     14306     14308     14306     14309     14309     14310     14309     14311
     14309     14312     14312     14313     14312     14314     14312     14315
     14315     14316     14315     14317     14315     14318     14318     14319
     14318     14320     14318     14321     14321     14322     14321     14323
     14321     14324     14324     14325     14324     14326     14324     14327
     14328     14332     14328     14336     14328     14340     14332     14333
     14332     14334     14332     14335     14336     14337     14336     14338
     14336     14339     14340     14341     14340     14342     14340     14343
     14328     14329     14329     14330     14329     14331     14329     14344
     14344     14345     14344     14346     14344     14350     14351     14352
     14350     14347     14347     14351     14347     14348     14347     14349
     14352     14353     14352     14354     14352     14355     14355     14356
     14355     14363     14355     14357     14363     14364     14363     14365
     14363     14366     14357     14358     14358     14360     14358     14359
     14360     14361     14360     14362     14360     14372     14372     14373
     14372     14374     14372     14375     14375     14376     14375     14377
     14375     14378     14378     14379     14378     14380     14378     14381
     14381     14382     14381     14383     14381     14384     14384     14385
     14384     14386     14384     14387     14387     14388     14387     14389
     14387     14390     14390     14391     14390     14392     14392     14393
     14392     14394     14394     14395     14394     14396     14394     14397
     14397     14398     14397     14399     14397     14400     14400     14401
     14400     14402     14400     14403     14403     14404     14403     14405
     14403     14406     14406     14407     14406     14408     14406     14409
     14409     14410     14409     14411     14409     14412     14412     14413
     14412     14414     14412     14415     14415     14416     14415     14417
     14415     14418     14366     14367     14367     14369     14367     14368
     14369     14370     14369     14371     14369     14419     14419     14420
     14419     14421     14419     14422     14422     14423     14422     14424
     14422     14425     14425     14426     14425     14427     14425     14428
     14428     14429     14428     14430     14428     14431     14431     14432
     14431     14433     14431     14434     14434     14435     14434     14436
     14434     14437     14437     14438     14437     14439     14437     14440
     14440     14441     14440     14442     14440     14443     14443     14444
     14443     14445     14443     14446     14446     14447     14446     14448
     14446     14449     14449     14450     14449     14451     14449     14452
     14452     14453     14452     14454     14452     14455     14455     14456
     14455     14457     14455     14458     14458     14459     14458     14460
     14458     14461     14462     14466     14462     14470     14462     14474
     14466     14467     14466     14468     14466     14469     14470     14471
     14470     14472     14470     14473     14474     14475     14474     14476
     14474     14477     14462     14463     14463     14464     14463     14465
     14463     14478     14478     14479     14478     14480     14478     14484
     14485     14486     14484     14481     14481     14485     14481     14482
     14481     14483     14486     14487     14486     14488     14486     14489
     14489     14490     14489     14497     14489     14491     14497     14498
     14497     14499     14497     14500     14491     14492     14492     14494
     14492     14493     14494     14495     14494     14496     14494     14506
     14506     14507     14506     14508     14506     14509     14509     14510
     14509     14511     14509     14512     14512     14513     14512     14514
     14512     14515     14515     14516     14515     14517     14515     14518
     14518     14519     14518     14520     14518     14521     14521     14522
     14521     14523     14521     14524     14524     14525     14524     14526
     14526     14527     14526     14528     14528     14529     14528     14530
     14528     14531     14531     14532     14531     14533     14531     14534
     14534     14535     14534     14536     14534     14537     14537     14538
     14537     14539     14537     14540     14540     14541     14540     14542
     14540     14543     14543     14544     14543     14545     14543     14546
     14546     14547     14546     14548     14546     14549     14549     14550
     14549     14551     14549     14552     14500     14501     14501     14503
     14501     14502     14503     14504     14503     14505     14503     14553
     14553     14554     14553     14555     14553     14556     14556     14557
     14556     14558     14556     14559     14559     14560     14559     14561
     14559     14562     14562     14563     14562     14564     14562     14565
     14565     14566     14565     14567     14565     14568     14568     14569
     14568     14570     14568     14571     14571     14572     14571     14573
     14571     14574     14574     14575     14574     14576     14574     14577
     14577     14578     14577     14579     14577     14580     14580     14581
     14580     14582     14580     14583     14583     14584     14583     14585
     14583     14586     14586     14587     14586     14588     14586     14589
     14589     14590     14589     14591     14589     14592     14592     14593
     14592     14594     14592     14595     14596     14600     14596     14604
     14596     14608     14600     14601     14600     14602     14600     14603
     14604     14605     14604     14606     14604     14607     14608     14609
     14608     14610     14608     14611     14596     14597     14597     14598
     14597     14599     14597     14612     14612     14613     14612     14614
     14612     14618     14619     14620     14618     14615     14615     14619
     14615     14616     14615     14617     14620     14621     14620     14622
     14620     14623     14623     14624     14623     14631     14623     14625
     14631     14632     14631     14633     14631     14634     14625     14626
     14626     14628     14626     14627     14628     14629     14628     14630
     14628     14640     14640     14641     14640     14642     14640     14643
     14643     14644     14643     14645     14643     14646     14646     14647
     14646     14648     14646     14649     14649     14650     14649     14651
     14649     14652     14652     14653     14652     14654     14652     14655
     14655     14656     14655     14657     14655     14658     14658     14659
     14658     14660     14660     14661     14660     14662     14662     14663
     14662     14664     14662     14665     14665     14666     14665     14667
     14665     14668     14668     14669     14668     14670     14668     14671
     14671     14672     14671     14673     14671     14674     14674     14675
     14674     14676     14674     14677     14677     14678     14677     14679
     14677     14680     14680     14681     14680     14682     14680     14683
     14683     14684     14683     14685     14683     14686     14634     14635
     14635     14637     14635     14636     14637     14638     14637     14639
     14637     14687     14687     14688     14687     14689     14687     14690
     14690     14691     14690     14692     14690     14693     14693     14694
     14693     14695     14693     14696     14696     14697     14696     14698
     14696     14699     14699     14700     14699     14701     14699     14702
     14702     14703     14702     14704     14702     14705     14705     14706
     14705     14707     14705     14708     14708     14709     14708     14710
     14708     14711     14711     14712     14711     14713     14711     14714
     14714     14715     14714     14716     14714     14717     14717     14718
     14717     14719     14717     14720     14720     14721     14720     14722
     14720     14723     14723     14724     14723     14725     14723     14726
     14726     14727     14726     14728     14726     14729     14730     14734
     14730     14738     14730     14742     14734     14735     14734     14736
     14734     14737     14738     14739     14738     14740     14738     14741
     14742     14743     14742     14744     14742     14745     14730     14731
     14731     14732     14731     14733     14731     14746     14746     14747
     14746     14748     14746     14752     14753     14754     14752     14749
     14749     14753     14749     14750     14749     14751     14754     14755
     14754     14756     14754     14757     14757     14758     14757     14765
     14757     14759     14765     14766     14765     14767     14765     14768
     14759     14760     14760     14762     14760     14761     14762     14763
     14762     14764     14762     14774     14774     14775     14774     14776
     14774     14777     14777     14778     14777     14779     14777     14780
     14780     14781     14780     14782     14780     14783     14783     14784
     14783     14785     14783     14786     14786     14787     14786     14788
     14786     14789     14789     14790     14789     14791     14789     14792
     14792     14793     14792     14794     14794     14795     14794     14796
     14796     14797     14796     14798     14796     14799     14799     14800
     14799     14801     14799     14802     14802     14803     14802     14804
     14802     14805     14805     14806     14805     14807     14805     14808
     14808     14809     14808     14810     14808     14811     14811     14812
     14811     14813     14811     14814     14814     14815     14814     14816
     14814     14817     14817     14818     14817     14819     14817     14820
     14768     14769     14769     14771     14769     14770     14771     14772
     14771     14773     14771     14821     14821     14822     14821     14823
     14821     14824     14824     14825     14824     14826     14824     14827
     14827     14828     14827     14829     14827     14830     14830     14831
     14830     14832     14830     14833     14833     14834     14833     14835
     14833     14836     14836     14837     14836     14838     14836     14839
     14839     14840     14839     14841     14839     14842     14842     14843
     14842     14844     14842     14845     14845     14846     14845     14847
     14845     14848     14848     14849     14848     14850     14848     14851
     14851     14852     14851     14853     14851     14854     14854     14855
     14854     14856     14854     14857     14857     14858     14857     14859
     14857     14860     14860     14861     14860     14862     14860     14863
     14864     14865     14864     14866     14864     14867     14864     14868
     14872     14870     14870     14868     14870     14871     14868     14869
     14868     14873     14881     14880     14873     14874     14873     14875
     14873     14879     14879     14876     14876     14880     14876     14877
     14876     14878     14881     14882     14881     14883     14881     14884
     14884     14885     14884     14892     14884     14886     14892     14893
     14892     14894     14892     14895     14886     14887     14887     14889
     14887     14888     14889     14890     14889     14891     14889     14901
     14901     14902     14901     14903     14901     14904     14904     14905
     14904     14906     14904     14907     14907     14908     14907     14909
     14907     14910     14910     14911     14910     14912     14910     14913
     14913     14914     14913     14915     14913     14916     14916     14917
     14916     14918     14916     14919     14919     14920     14919     14921
     14921     14922     14921     14923     14923     14924     14923     14925
     14923     14926     14926     14927     14926     14928     14926     14929
     14929     14930     14929     14931     14929     14932     14932     14933
     14932     14934     14932     14935     14935     14936     14935     14937
     14935     14938     14938     14939     14938     14940     14938     14941
     14941     14942     14941     14943     14941     14944     14944     14945
     14944     14946     14944     14947     14895     14896     14896     14898
     14896     14897     14898     14899     14898     14900     14898     14948
     14948     14949     14948     14950     14948     14951     14951     14952
     14951     14953     14951     14954     14954     14955     14954     14956
     14954     14957     14957     14958     14957     14959     14957     14960
     14960     14961     14960     14962     14960     14963     14963     14964
     14963     14965     14963     14966     14966     14967     14966     14968
     14966     14969     14969     14970     14969     14971     14969     14972
     14972     14973     14972     14974     14972     14975     14975     14976
     14975     14977     14975     14978     14978     14979     14978     14980
     14978     14981     14981     14982     14981     14983     14981     14984
     14984     14985     14984     14986     14984     14987     14987     14988
     14987     14989     14987     14990     14991     14995     14991     14999
     14991     15003     14995     14996     14995     14997     14995     14998
     14999     15000     14999     15001     14999     15002     15003     15004
     15003     15005     15003     15006     14991     14992     14992     14993
     14992     14994     14992     15007     15007     15008     15007     15009
     15007     15013     15014     15015     15013     15010     15010     15014
     15010     15011     15010     15012     15015     15016     15015     15017
     15015     15018     15018     15019     15018     15026     15018     15020
     15026     15027     15026     15028     15026     15029     15020     15021
     15021     15023     15021     15022     15023     15024     15023     15025
     15023     15035     15035     15036     15035     15037     15035     15038
     15038     15039     15038     15040     15038     15041     15041     15042
     15041     15043     15041     15044     15044     15045     15044     15046
     15044     15047     15047     15048     15047     15049     15047     15050
     15050     15051     15050     15052     15050     15053     15053     15054
     15053     15055     15055     15056     15055     15057     15057     15058
     15057     15059     15057     15060     15060     15061     15060     15062
     15060     15063     15063     15064     15063     15065     15063     15066
     15066     15067     15066     15068     15066     15069     15069     15070
     15069     15071     15069     15072     15072     15073     15072     15074
     15072     15075     15075     15076     15075     15077     15075     15078
     15078     15079     15078     15080     15078     15081     15029     15030
     15030     15032     15030     15031     15032     15033     15032     15034
     15032     15082     15082     15083     15082     15084     15082     15085
     15085     15086     15085     15087     15085     15088     15088     15089
     15088     15090     15088     15091     15091     15092     15091     15093
     15091     15094     15094     15095     15094     15096     15094     15097
     15097     15098     15097     15099     15097     15100     15100     15101
     15100     15102     15100     15103     15103     15104     15103     15105
     15103     15106     15106     15107     15106     15108     15106     15109
     15109     15110     15109     15111     15109     15112     15112     15113
     15112     15114     15112     15115     15115     15116     15115     15117
     15115     15118     15118     15119     15118     15120     15118     15121
     15121     15122     15121     15123     15121     15124     15125     15129
     15125     15133     15125     15137     15129     15130     15129     15131
     15129     15132     15133     15134     15133     15135     15133     15136
     15137     15138     15137     15139     15137     15140     15125     15126
     15126     15127     15126     15128     15126     15141     15141     15142
     15141     15143     15141     15147     15148     15149     15147     15144
     15144     15148     15144     15145     15144     15146     15149     15150
     15149     15151     15149     15152     15152     15153     15152     15160
     15152     15154     15160     15161     15160     15162     15160     15163
     15154     15155     15155     15157     15155     15156     15157     15158
     15157     15159     15157     15169     15169     15170     15169     15171
     15169     15172     15172     15173     15172     15174     15172     15175
     15175     15176     15175     15177     15175     15178     15178     15179
     15178     15180     15178     15181     15181     15182     15181     15183
     15181     15184     15184     15185     15184     15186     15184     15187
     15187     15188     15187     15189     15189     15190     15189     15191
     15191     15192     15191     15193     15191     15194     15194     15195
     15194     15196     15194     15197     15197     15198     15197     15199
     15197     15200     15200     15201     15200     15202     15200     15203
     15203     15204     15203     15205     15203     15206     15206     15207
     15206     15208     15206     15209     15209     15210     15209     15211
     15209     15212     15212     15213     15212     15214     15212     15215
     15163     15164     15164     15166     15164     15165     15166     15167
     15166     15168     15166     15216     15216     15217     15216     15218
     15216     15219     15219     15220     15219     15221     15219     15222
     15222     15223     15222     15224     15222     15225     15225     15226
     15225     15227     15225     15228     15228     15229     15228     15230
     15228     15231     15231     15232     15231     15233     15231     15234
     15234     15235     15234     15236     15234     15237     15237     15238
     15237     15239     15237     15240     15240     15241     15240     15242
     15240     15243     15243     15244     15243     15245     15243     15246
     15246     15247     15246     15248     15246     15249     15249     15250
     15249     15251     15249     15252     15252     15253     15252     15254
     15252     15255     15255     15256     15255     15257     15255     15258
     15259     15260     15259     15261     15259     15262     15259     15263
     15267     15265     15265     15263     15265     15266     15263     15264
     15263     15268     15276     15275     15268     15269     15268     15270
     15268     15274     15274     15271     15271     15275     15271     15272
     15271     15273     15276     15277     15276     15278     15276     15279
     15279     15280     15279     15287     15279     15281     15287     15288
     15287     15289     15287     15290     15281     15282     15282     15284
     15282     15283     15284     15285     15284     15286     15284     15296
     15296     15297     15296     15298     15296     15299     15299     15300
     15299     15301     15299     15302     15302     15303     15302     15304
     15302     15305     15305     15306     15305     15307     15305     15308
     15308     15309     15308     15310     15308     15311     15311     15312
     15311     15313     15311     15314     15314     15315     15314     15316
     15316     15317     15316     15318     15318     15319     15318     15320
     15318     15321     15321     15322     15321     15323     15321     15324
     15324     15325     15324     15326     15324     15327     15327     15328
     15327     15329     15327     15330     15330     15331     15330     15332
     15330     15333     15333     15334     15333     15335     15333     15336
     15336     15337     15336     15338     15336     15339     15339     15340
     15339     15341     15339     15342     15290     15291     15291     15293
     15291     15292     15293     15294     15293     15295     15293     15343
     15343     15344     15343     15345     15343     15346     15346     15347
     15346     15348     15346     15349     15349     15350     15349     15351
     15349     15352     15352     15353     15352     15354     15352     15355
     15355     15356     15355     15357     15355     15358     15358     15359
     15358     15360     15358     15361     15361     15362     15361     15363
     15361     15364     15364     15365     15364     15366     15364     15367
     15367     15368     15367     15369     15367     15370     15370     15371
     15370     15372     15370     15373     15373     15374     15373     15375
     15373     15376     15376     15377     15376     15378     15376     15379
     15379     15380     15379     15381     15379     15382     15382     15383
     15382     15384     15382     15385     15386     15390     15386     15394
     15386     15398     15390     15391     15390     15392     15390     15393
     15394     15395     15394     15396     15394     15397     15398     15399
     15398     15400     15398     15401     15386     15387     15387     15388
     15387     15389     15387     15402     15402     15403     15402     15404
     15402     15408     15409     15410     15408     15405     15405     15409
     15405     15406     15405     15407     15410     15411     15410     15412
     15410     15413     15413     15414     15413     15421     15413     15415
     15421     15422     15421     15423     15421     15424     15415     15416
     15416     15418     15416     15417     15418     15419     15418     15420
     15418     15430     15430     15431     15430     15432     15430     15433
     15433     15434     15433     15435     15433     15436     15436     15437
     15436     15438     15436     15439     15439     15440     15439     15441
     15439     15442     15442     15443     15442     15444     15442     15445
     15445     15446     15445     15447     15445     15448     15448     15449
     15448     15450     15450     15451     15450     15452     15452     15453
     15452     15454     15452     15455     15455     15456     15455     15457
     15455     15458     15458     15459     15458     15460     15458     15461
     15461     15462     15461     15463     15461     15464     15464     15465
     15464     15466     15464     15467     15467     15468     15467     15469
     15467     15470     15470     15471     15470     15472     15470     15473
     15473     15474     15473     15475     15473     15476     15424     15425
     15425     15427     15425     15426     15427     15428     15427     15429
     15427     15477     15477     15478     15477     15479     15477     15480
     15480     15481     15480     15482     15480     15483     15483     15484
     15483     15485     15483     15486     15486     15487     15486     15488
     15486     15489     15489     15490     15489     15491     15489     15492
     15492     15493     15492     15494     15492     15495     15495     15496
     15495     15497     15495     15498     15498     15499     15498     15500
     15498     15501     15501     15502     15501     15503     15501     15504
     15504     15505     15504     15506     15504     15507     15507     15508
     15507     15509     15507     15510     15510     15511     15510     15512
     15510     15513     15513     15514     15513     15515     15513     15516
     15516     15517     15516     15518     15516     15519     15520     15521
     15520     15522     15520     15523     15520     15524     15528     15526
     15526     15524     15526     15527     15524     15525     15524     15529
     15537     15536     15529     15530     15529     15531     15529     15535
     15535     15532     15532     15536     15532     15533     15532     15534
     15537     15538     15537     15539     15537     15540     15540     15541
     15540     15548     15540     15542     15548     15549     15548     15550
     15548     15551     15542     15543     15543     15545     15543     15544
     15545     15546     15545     15547     15545     15557     15557     15558
     15557     15559     15557     15560     15560     15561     15560     15562
     15560     15563     15563     15564     15563     15565     15563     15566
     15566     15567     15566     15568     15566     15569     15569     15570
     15569     15571     15569     15572     15572     15573     15572     15574
     15572     15575     15575     15576     15575     15577     15577     15578
     15577     15579     15579     15580     15579     15581     15579     15582
     15582     15583     15582     15584     15582     15585     15585     15586
     15585     15587     15585     15588     15588     15589     15588     15590
     15588     15591     15591     15592     15591     15593     15591     15594
     15594     15595     15594     15596     15594     15597     15597     15598
     15597     15599     15597     15600     15600     15601     15600     15602
     15600     15603     15551     15552     15552     15554     15552     15553
     15554     15555     15554     15556     15554     15604     15604     15605
     15604     15606     15604     15607     15607     15608     15607     15609
     15607     15610     15610     15611     15610     15612     15610     15613
     15613     15614     15613     15615     15613     15616     15616     15617
     15616     15618     15616     15619     15619     15620     15619     15621
     15619     15622     15622     15623     15622     15624     15622     15625
     15625     15626     15625     15627     15625     15628     15628     15629
     15628     15630     15628     15631     15631     15632     15631     15633
     15631     15634     15634     15635     15634     15636     15634     15637
     15637     15638     15637     15639     15637     15640     15640     15641
     15640     15642     15640     15643     15643     15644     15643     15645
     15643     15646     15647     15648     15647     15649     15647     15650
     15647     15651     15655     15653     15653     15651     15653     15654
     15651     15652     15651     15656     15664     15663     15656     15657
     15656     15658     15656     15662     15662     15659     15659     15663
     15659     15660     15659     15661     15664     15665     15664     15666
     15664     15667     15667     15668     15667     15675     15667     15669
     15675     15676     15675     15677     15675     15678     15669     15670
     15670     15672     15670     15671     15672     15673     15672     15674
     15672     15684     15684     15685     15684     15686     15684     15687
     15687     15688     15687     15689     15687     15690     15690     15691
     15690     15692     15690     15693     15693     15694     15693     15695
     15693     15696     15696     15697     15696     15698     15696     15699
     15699     15700     15699     15701     15699     15702     15702     15703
     15702     15704     15704     15705     15704     15706     15706     15707
     15706     15708     15706     15709     15709     15710     15709     15711
     15709     15712     15712     15713     15712     15714     15712     15715
     15715     15716     15715     15717     15715     15718     15718     15719
     15718     15720     15718     15721     15721     15722     15721     15723
     15721     15724     15724     15725     15724     15726     15724     15727
     15727     15728     15727     15729     15727     15730     15678     15679
     15679     15681     15679     15680     15681     15682     15681     15683
     15681     15731     15731     15732     15731     15733     15731     15734
     15734     15735     15734     15736     15734     15737     15737     15738
     15737     15739     15737     15740     15740     15741     15740     15742
     15740     15743     15743     15744     15743     15745     15743     15746
     15746     15747     15746     15748     15746     15749     15749     15750
     15749     15751     15749     15752     15752     15753     15752     15754
     15752     15755     15755     15756     15755     15757     15755     15758
     15758     15759     15758     15760     15758     15761     15761     15762
     15761     15763     15761     15764     15764     15765     15764     15766
     15764     15767     15767     15768     15767     15769     15767     15770
     15770     15771     15770     15772     15770     15773     15774     15778
     15774     15782     15774     15786     15778     15779     15778     15780
     15778     15781     15782     15783     15782     15784     15782     15785
     15786     15787     15786     15788     15786     15789     15774     15775
     15775     15776     15775     15777     15775     15790     15790     15791
     15790     15792     15790     15796     15797     15798     15796     15793
     15793     15797     15793     15794     15793     15795     15798     15799
     15798     15800     15798     15801     15801     15802     15801     15809
     15801     15803     15809     15810     15809     15811     15809     15812
     15803     15804     15804     15806     15804     15805     15806     15807
     15806     15808     15806     15818     15818     15819     15818     15820
     15818     15821     15821     15822     15821     15823     15821     15824
     15824     15825     15824     15826     15824     15827     15827     15828
     15827     15829     15827     15830     15830     15831     15830     15832
     15830     15833     15833     15834     15833     15835     15833     15836
     15836     15837     15836     15838     15838     15839     15838     15840
     15840     15841     15840     15842     15840     15843     15843     15844
     15843     15845     15843     15846     15846     15847     15846     15848
     15846     15849     15849     15850     15849     15851     15849     15852
     15852     15853     15852     15854     15852     15855     15855     15856
     15855     15857     15855     15858     15858     15859     15858     15860
     15858     15861     15861     15862     15861     15863     15861     15864
     15812     15813     15813     15815     15813     15814     15815     15816
     15815     15817     15815     15865     15865     15866     15865     15867
     15865     15868     15868     15869     15868     15870     15868     15871
     15871     15872     15871     15873     15871     15874     15874     15875
     15874     15876     15874     15877     15877     15878     15877     15879
     15877     15880     15880     15881     15880     15882     15880     15883
     15883     15884     15883     15885     15883     15886     15886     15887
     15886     15888     15886     15889     15889     15890     15889     15891
     15889     15892     15892     15893     15892     15894     15892     15895
     15895     15896     15895     15897     15895     15898     15898     15899
     15898     15900     15898     15901     15901     15902     15901     15903
     15901     15904     15904     15905     15904     15906     15904     15907
     15908     15909     15908     15910     15908     15911     15908     15912
     15916     15914     15914     15912     15914     15915     15912     15913
     15912     15917     15925     15924     15917     15918     15917     15919
     15917     15923     15923     15920     15920     15924     15920     15921
     15920     15922     15925     15926     15925     15927     15925     15928
     15928     15929     15928     15936     15928     15930     15936     15937
     15936     15938     15936     15939     15930     15931     15931     15933
     15931     15932     15933     15934     15933     15935     15933     15945
     15945     15946     15945     15947     15945     15948     15948     15949
     15948     15950     15948     15951     15951     15952     15951     15953
     15951     15954     15954     15955     15954     15956     15954     15957
     15957     15958     15957     15959     15957     15960     15960     15961
     15960     15962     15960     15963     15963     15964     15963     15965
     15965     15966     15965     15967     15967     15968     15967     15969
     15967     15970     15970     15971     15970     15972     15970     15973
     15973     15974     15973     15975     15973     15976     15976     15977
     15976     15978     15976     15979     15979     15980     15979     15981
     15979     15982     15982     15983     15982     15984     15982     15985
     15985     15986     15985     15987     15985     15988     15988     15989
     15988     15990     15988     15991     15939     15940     15940     15942
     15940     15941     15942     15943     15942     15944     15942     15992
     15992     15993     15992     15994     15992     15995     15995     15996
     15995     15997     15995     15998     15998     15999     15998     16000
     15998     16001     16001     16002     16001     16003     16001     16004
     16004     16005     16004     16006     16004     16007     16007     16008
     16007     16009     16007     16010     16010     16011     16010     16012
     16010     16013     16013     16014     16013     16015     16013     16016
     16016     16017     16016     16018     16016     16019     16019     16020
     16019     16021     16019     16022     16022     16023     16022     16024
     16022     16025     16025     16026     16025     16027     16025     16028
     16028     16029     16028     16030     16028     16031     16031     16032
     16031     16033     16031     16034     16035     16039     16035     16043
     16035     16047     16039     16040     16039     16041     16039     16042
     16043     16044     16043     16045     16043     16046     16047     16048
     16047     16049     16047     16050     16035     16036     16036     16037
     16036     16038     16036     16051     16051     16052     16051     16053
     16051     16057     16058     16059     16057     16054     16054     16058
     16054     16055     16054     16056     16059     16060     16059     16061
     16059     16062     16062     16063     16062     16070     16062     16064
     16070     16071     16070     16072     16070     16073     16064     16065
     16065     16067     16065     16066     16067     16068     16067     16069
     16067     16079     16079     16080     16079     16081     16079     16082
     16082     16083     16082     16084     16082     16085     16085     16086
     16085     16087     16085     16088     16088     16089     16088     16090
     16088     16091     16091     16092     16091     16093     16091     16094
     16094     16095     16094     16096     16094     16097     16097     16098
     16097     16099     16099     16100     16099     16101     16101     16102
     16101     16103     16101     16104     16104     16105     16104     16106
     16104     16107     16107     16108     16107     16109     16107     16110
     16110     16111     16110     16112     16110     16113     16113     16114
     16113     16115     16113     16116     16116     16117     16116     16118
     16116     16119     16119     16120     16119     16121     16119     16122
     16122     16123     16122     16124     16122     16125     16073     16074
     16074     16076     16074     16075     16076     16077     16076     16078
     16076     16126     16126     16127     16126     16128     16126     16129
     16129     16130     16129     16131     16129     16132     16132     16133
     16132     16134     16132     16135     16135     16136     16135     16137
     16135     16138     16138     16139     16138     16140     16138     16141
     16141     16142     16141     16143     16141     16144     16144     16145
     16144     16146     16144     16147     16147     16148     16147     16149
     16147     16150     16150     16151     16150     16152     16150     16153
     16153     16154     16153     16155     16153     16156     16156     16157
     16156     16158     16156     16159     16159     16160     16159     16161
     16159     16162     16162     16163     16162     16164     16162     16165
     16165     16166     16165     16167     16165     16168     16169     16173
     16169     16177     16169     16181     16173     16174     16173     16175
     16173     16176     16177     16178     16177     16179     16177     16180
     16181     16182     16181     16183     16181     16184     16169     16170
     16170     16171     16170     16172     16170     16185     16185     16186
     16185     16187     16185     16191     16192     16193     16191     16188
     16188     16192     16188     16189     16188     16190     16193     16194
     16193     16195     16193     16196     16196     16197     16196     16204
     16196     16198     16204     16205     16204     16206     16204     16207
     16198     16199     16199     16201     16199     16200     16201     16202
     16201     16203     16201     16213     16213     16214     16213     16215
     16213     16216     16216     16217     16216     16218     16216     16219
     16219     16220     16219     16221     16219     16222     16222     16223
     16222     16224     16222     16225     16225     16226     16225     16227
     16225     16228     16228     16229     16228     16230     16228     16231
     16231     16232     16231     16233     16233     16234     16233     16235
     16235     16236     16235     16237     16235     16238     16238     16239
     16238     16240     16238     16241     16241     16242     16241     16243
     16241     16244     16244     16245     16244     16246     16244     16247
     16247     16248     16247     16249     16247     16250     16250     16251
     16250     16252     16250     16253     16253     16254     16253     16255
     16253     16256     16256     16257     16256     16258     16256     16259
     16207     16208     16208     16210     16208     16209     16210     16211
     16210     16212     16210     16260     16260     16261     16260     16262
     16260     16263     16263     16264     16263     16265     16263     16266
     16266     16267     16266     16268     16266     16269     16269     16270
     16269     16271     16269     16272     16272     16273     16272     16274
     16272     16275     16275     16276     16275     16277     16275     16278
     16278     16279     16278     16280     16278     16281     16281     16282
     16281     16283     16281     16284     16284     16285     16284     16286
     16284     16287     16287     16288     16287     16289     16287     16290
     16290     16291     16290     16292     16290     16293     16293     16294
     16293     16295     16293     16296     16296     16297     16296     16298
     16296     16299     16299     16300     16299     16301     16299     16302
     16303     16307     16303     16311     16303     16315     16307     16308
     16307     16309     16307     16310     16311     16312     16311     16313
     16311     16314     16315     16316     16315     16317     16315     16318
     16303     16304     16304     16305     16304     16306     16304     16319
     16319     16320     16319     16321     16319     16325     16326     16327
     16325     16322     16322     16326     16322     16323     16322     16324
     16327     16328     16327     16329     16327     16330     16330     16331
     16330     16338     16330     16332     16338     16339     16338     16340
     16338     16341     16332     16333     16333     16335     16333     16334
     16335     16336     16335     16337     16335     16347     16347     16348
     16347     16349     16347     16350     16350     16351     16350     16352
     16350     16353     16353     16354     16353     16355     16353     16356
     16356     16357     16356     16358     16356     16359     16359     16360
     16359     16361     16359     16362     16362     16363     16362     16364
     16362     16365     16365     16366     16365     16367     16367     16368
     16367     16369     16369     16370     16369     16371     16369     16372
     16372     16373     16372     16374     16372     16375     16375     16376
     16375     16377     16375     16378     16378     16379     16378     16380
     16378     16381     16381     16382     16381     16383     16381     16384
     16384     16385     16384     16386     16384     16387     16387     16388
     16387     16389     16387     16390     16390     16391     16390     16392
     16390     16393     16341     16342     16342     16344     16342     16343
     16344     16345     16344     16346     16344     16394     16394     16395
     16394     16396     16394     16397     16397     16398     16397     16399
     16397     16400     16400     16401     16400     16402     16400     16403
     16403     16404     16403     16405     16403     16406     16406     16407
     16406     16408     16406     16409     16409     16410     16409     16411
     16409     16412     16412     16413     16412     16414     16412     16415
     16415     16416     16415     16417     16415     16418     16418     16419
     16418     16420     16418     16421     16421     16422     16421     16423
     16421     16424     16424     16425     16424     16426     16424     16427
     16427     16428     16427     16429     16427     16430     16430     16431
     16430     16432     16430     16433     16433     16434     16433     16435
     16433     16436     16437     16441     16437     16445     16437     16449
     16441     16442     16441     16443     16441     16444     16445     16446
     16445     16447     16445     16448     16449     16450     16449     16451
     16449     16452     16437     16438     16438     16439     16438     16440
     16438     16453     16453     16454     16453     16455     16453     16459
     16460     16461     16459     16456     16456     16460     16456     16457
     16456     16458     16461     16462     16461     16463     16461     16464
     16464     16465     16464     16472     16464     16466     16472     16473
     16472     16474     16472     16475     16466     16467     16467     16469
     16467     16468     16469     16470     16469     16471     16469     16481
     16481     16482     16481     16483     16481     16484     16484     16485
     16484     16486     16484     16487     16487     16488     16487     16489
     16487     16490     16490     16491     16490     16492     16490     16493
     16493     16494     16493     16495     16493     16496     16496     16497
     16496     16498     16496     16499     16499     16500     16499     16501
     16501     16502     16501     16503     16503     16504     16503     16505
     16503     16506     16506     16507     16506     16508     16506     16509
     16509     16510     16509     16511     16509     16512     16512     16513
     16512     16514     16512     16515     16515     16516     16515     16517
     16515     16518     16518     16519     16518     16520     16518     16521
     16521     16522     16521     16523     16521     16524     16524     16525
     16524     16526     16524     16527     16475     16476     16476     16478
     16476     16477     16478     16479     16478     16480     16478     16528
     16528     16529     16528     16530     16528     16531     16531     16532
     16531     16533     16531     16534     16534     16535     16534     16536
     16534     16537     16537     16538     16537     16539     16537     16540
     16540     16541     16540     16542     16540     16543     16543     16544
     16543     16545     16543     16546     16546     16547     16546     16548
     16546     16549     16549     16550     16549     16551     16549     16552
     16552     16553     16552     16554     16552     16555     16555     16556
     16555     16557     16555     16558     16558     16559     16558     16560
     16558     16561     16561     16562     16561     16563     16561     16564
     16564     16565     16564     16566     16564     16567     16567     16568
     16567     16569     16567     16570     16571     16575     16571     16579
     16571     16583     16575     16576     16575     16577     16575     16578
     16579     16580     16579     16581     16579     16582     16583     16584
     16583     16585     16583     16586     16571     16572     16572     16573
     16572     16574     16572     16587     16587     16588     16587     16589
     16587     16593     16594     16595     16593     16590     16590     16594
     16590     16591     16590     16592     16595     16596     16595     16597
     16595     16598     16598     16599     16598     16606     16598     16600
     16606     16607     16606     16608     16606     16609     16600     16601
     16601     16603     16601     16602     16603     16604     16603     16605
     16603     16615     16615     16616     16615     16617     16615     16618
     16618     16619     16618     16620     16618     16621     16621     16622
     16621     16623     16621     16624     16624     16625     16624     16626
     16624     16627     16627     16628     16627     16629     16627     16630
     16630     16631     16630     16632     16630     16633     16633     16634
     16633     16635     16635     16636     16635     16637     16637     16638
     16637     16639     16637     16640     16640     16641     16640     16642
     16640     16643     16643     16644     16643     16645     16643     16646
     16646     16647     16646     16648     16646     16649     16649     16650
     16649     16651     16649     16652     16652     16653     16652     16654
     16652     16655     16655     16656     16655     16657     16655     16658
     16658     16659     16658     16660     16658     16661     16609     16610
     16610     16612     16610     16611     16612     16613     16612     16614
     16612     16662     16662     16663     16662     16664     16662     16665
     16665     16666     16665     16667     16665     16668     16668     16669
     16668     16670     16668     16671     16671     16672     16671     16673
     16671     16674     16674     16675     16674     16676     16674     16677
     16677     16678     16677     16679     16677     16680     16680     16681
     16680     16682     16680     16683     16683     16684     16683     16685
     16683     16686     16686     16687     16686     16688     16686     16689
     16689     16690     16689     16691     16689     16692     16692     16693
     16692     16694     16692     16695     16695     16696     16695     16697
     16695     16698     16698     16699     16698     16700     16698     16701
     16701     16702     16701     16703     16701     16704     16705     16709
     16705     16713     16705     16717     16709     16710     16709     16711
     16709     16712     16713     16714     16713     16715     16713     16716
     16717     16718     16717     16719     16717     16720     16705     16706
     16706     16707     16706     16708     16706     16721     16721     16722
     16721     16723     16721     16727     16728     16729     16727     16724
     16724     16728     16724     16725     16724     16726     16729     16730
     16729     16731     16729     16732     16732     16733     16732     16740
     16732     16734     16740     16741     16740     16742     16740     16743
     16734     16735     16735     16737     16735     16736     16737     16738
     16737     16739     16737     16749     16749     16750     16749     16751
     16749     16752     16752     16753     16752     16754     16752     16755
     16755     16756     16755     16757     16755     16758     16758     16759
     16758     16760     16758     16761     16761     16762     16761     16763
     16761     16764     16764     16765     16764     16766     16764     16767
     16767     16768     16767     16769     16769     16770     16769     16771
     16771     16772     16771     16773     16771     16774     16774     16775
     16774     16776     16774     16777     16777     16778     16777     16779
     16777     16780     16780     16781     16780     16782     16780     16783
     16783     16784     16783     16785     16783     16786     16786     16787
     16786     16788     16786     16789     16789     16790     16789     16791
     16789     16792     16792     16793     16792     16794     16792     16795
     16743     16744     16744     16746     16744     16745     16746     16747
     16746     16748     16746     16796     16796     16797     16796     16798
     16796     16799     16799     16800     16799     16801     16799     16802
     16802     16803     16802     16804     16802     16805     16805     16806
     16805     16807     16805     16808     16808     16809     16808     16810
     16808     16811     16811     16812     16811     16813     16811     16814
     16814     16815     16814     16816     16814     16817     16817     16818
     16817     16819     16817     16820     16820     16821     16820     16822
     16820     16823     16823     16824     16823     16825     16823     16826
     16826     16827     16826     16828     16826     16829     16829     16830
     16829     16831     16829     16832     16832     16833     16832     16834
     16832     16835     16835     16836     16835     16837     16835     16838
     16839     16843     16839     16847     16839     16851     16843     16844
     16843     16845     16843     16846     16847     16848     16847     16849
     16847     16850     16851     16852     16851     16853     16851     16854
     16839     16840     16840     16841     16840     16842     16840     16855
     16855     16856     16855     16857     16855     16861     16862     16863
     16861     16858     16858     16862     16858     16859     16858     16860
     16863     16864     16863     16865     16863     16866     16866     16867
     16866     16874     16866     16868     16874     16875     16874     16876
     16874     16877     16868     16869     16869     16871     16869     16870
     16871     16872     16871     16873     16871     16883     16883     16884
     16883     16885     16883     16886     16886     16887     16886     16888
     16886     16889     16889     16890     16889     16891     16889     16892
     16892     16893     16892     16894     16892     16895     16895     16896
     16895     16897     16895     16898     16898     16899     16898     16900
     16898     16901     16901     16902     16901     16903     16903     16904
     16903     16905     16905     16906     16905     16907     16905     16908
     16908     16909     16908     16910     16908     16911     16911     16912
     16911     16913     16911     16914     16914     16915     16914     16916
     16914     16917     16917     16918     16917     16919     16917     16920
     16920     16921     16920     16922     16920     16923     16923     16924
     16923     16925     16923     16926     16926     16927     16926     16928
     16926     16929     16877     16878     16878     16880     16878     16879
     16880     16881     16880     16882     16880     16930     16930     16931
     16930     16932     16930     16933     16933     16934     16933     16935
     16933     16936     16936     16937     16936     16938     16936     16939
     16939     16940     16939     16941     16939     16942     16942     16943
     16942     16944     16942     16945     16945     16946     16945     16947
     16945     16948     16948     16949     16948     16950     16948     16951
     16951     16952     16951     16953     16951     16954     16954     16955
     16954     16956     16954     16957     16957     16958     16957     16959
     16957     16960     16960     16961     16960     16962     16960     16963
     16963     16964     16963     16965     16963     16966     16966     16967
     16966     16968     16966     16969     16969     16970     16969     16971
     16969     16972     16973     16977     16973     16981     16973     16985
     16977     16978     16977     16979     16977     16980     16981     16982
     16981     16983     16981     16984     16985     16986     16985     16987
     16985     16988     16973     16974     16974     16975     16974     16976
     16974     16989     16989     16990     16989     16991     16989     16995
     16996     16997     16995     16992     16992     16996     16992     16993
     16992     16994     16997     16998     16997     16999     16997     17000
     17000     17001     17000     17008     17000     17002     17008     17009
     17008     17010     17008     17011     17002     17003     17003     17005
     17003     17004     17005     17006     17005     17007     17005     17017
     17017     17018     17017     17019     17017     17020     17020     17021
     17020     17022     17020     17023     17023     17024     17023     17025
     17023     17026     17026     17027     17026     17028     17026     17029
     17029     17030     17029     17031     17029     17032     17032     17033
     17032     17034     17032     17035     17035     17036     17035     17037
     17037     17038     17037     17039     17039     17040     17039     17041
     17039     17042     17042     17043     17042     17044     17042     17045
     17045     17046     17045     17047     17045     17048     17048     17049
     17048     17050     17048     17051     17051     17052     17051     17053
     17051     17054     17054     17055     17054     17056     17054     17057
     17057     17058     17057     17059     17057     17060     17060     17061
     17060     17062     17060     17063     17011     17012     17012     17014
     17012     17013     17014     17015     17014     17016     17014     17064
     17064     17065     17064     17066     17064     17067     17067     17068
     17067     17069     17067     17070     17070     17071     17070     17072
     17070     17073     17073     17074     17073     17075     17073     17076
     17076     17077     17076     17078     17076     17079     17079     17080
     17079     17081     17079     17082     17082     17083     17082     17084
     17082     17085     17085     17086     17085     17087     17085     17088
     17088     17089     17088     17090     17088     17091     17091     17092
     17091     17093     17091     17094     17094     17095     17094     17096
     17094     17097     17097     17098     17097     17099     17097     17100
     17100     17101     17100     17102     17100     17103     17103     17104
     17103     17105     17103     17106     17107     17111     17107     17115
     17107     17119     17111     17112     17111     17113     17111     17114
     17115     17116     17115     17117     17115     17118     17119     17120
     17119     17121     17119     17122     17107     17108     17108     17109
     17108     17110     17108     17123     17123     17124     17123     17125
     17123     17129     17130     17131     17129     17126     17126     17130
     17126     17127     17126     17128     17131     17132     17131     17133
     17131     17134     17134     17135     17134     17142     17134     17136
     17142     17143     17142     17144     17142     17145     17136     17137
     17137     17139     17137     17138     17139     17140     17139     17141
     17139     17151     17151     17152     17151     17153     17151     17154
     17154     17155     17154     17156     17154     17157     17157     17158
     17157     17159     17157     17160     17160     17161     17160     17162
     17160     17163     17163     17164     17163     17165     17163     17166
     17166     17167     17166     17168     17166     17169     17169     17170
     17169     17171     17171     17172     17171     17173     17173     17174
     17173     17175     17173     17176     17176     17177     17176     17178
     17176     17179     17179     17180     17179     17181     17179     17182
     17182     17183     17182     17184     17182     17185     17185     17186
     17185     17187     17185     17188     17188     17189     17188     17190
     17188     17191     17191     17192     17191     17193     17191     17194
     17194     17195     17194     17196     17194     17197     17145     17146
     17146     17148     17146     17147     17148     17149     17148     17150
     17148     17198     17198     17199     17198     17200     17198     17201
     17201     17202     17201     17203     17201     17204     17204     17205
     17204     17206     17204     17207     17207     17208     17207     17209
     17207     17210     17210     17211     17210     17212     17210     17213
     17213     17214     17213     17215     17213     17216     17216     17217
     17216     17218     17216     17219     17219     17220     17219     17221
     17219     17222     17222     17223     17222     17224     17222     17225
     17225     17226     17225     17227     17225     17228     17228     17229
     17228     17230     17228     17231     17231     17232     17231     17233
     17231     17234     17234     17235     17234     17236     17234     17237
     17237     17238     17237     17239     17237     17240     17241     17245
     17241     17249     17241     17253     17245     17246     17245     17247
     17245     17248     17249     17250     17249     17251     17249     17252
     17253     17254     17253     17255     17253     17256     17241     17242
     17242     17243     17242     17244     17242     17257     17257     17258
     17257     17259     17257     17263     17264     17265     17263     17260
     17260     17264     17260     17261     17260     17262     17265     17266
     17265     17267     17265     17268     17268     17269     17268     17276
     17268     17270     17276     17277     17276     17278     17276     17279
     17270     17271     17271     17273     17271     17272     17273     17274
     17273     17275     17273     17285     17285     17286     17285     17287
     17285     17288     17288     17289     17288     17290     17288     17291
     17291     17292     17291     17293     17291     17294     17294     17295
     17294     17296     17294     17297     17297     17298     17297     17299
     17297     17300     17300     17301     17300     17302     17300     17303
     17303     17304     17303     17305     17305     17306     17305     17307
     17307     17308     17307     17309     17307     17310     17310     17311
     17310     17312     17310     17313     17313     17314     17313     17315
     17313     17316     17316     17317     17316     17318     17316     17319
     17319     17320     17319     17321     17319     17322     17322     17323
     17322     17324     17322     17325     17325     17326     17325     17327
     17325     17328     17328     17329     17328     17330     17328     17331
     17279     17280     17280     17282     17280     17281     17282     17283
     17282     17284     17282     17332     17332     17333     17332     17334
     17332     17335     17335     17336     17335     17337     17335     17338
     17338     17339     17338     17340     17338     17341     17341     17342
     17341     17343     17341     17344     17344     17345     17344     17346
     17344     17347     17347     17348     17347     17349     17347     17350
     17350     17351     17350     17352     17350     17353     17353     17354
     17353     17355     17353     17356     17356     17357     17356     17358
     17356     17359     17359     17360     17359     17361     17359     17362
     17362     17363     17362     17364     17362     17365     17365     17366
     17365     17367     17365     17368     17368     17369     17368     17370
     17368     17371     17371     17372     17371     17373     17371     17374
     17375     17376     17375     17377     17376     17377     17378     17379
     17378     17380     17379     17380     17381     17382     17381     17383
     17382     17383     17384     17385     17384     17386     17385     17386
     17387     17388     17387     17389     17388     17389     17390     17391
     17390     17392     17391     17392     17393     17394     17393     17395
     17394     17395     17396     17397     17396     17398     17397     17398
     17399     17400     17399     17401     17400     17401     17402     17403
     17402     17404     17403     17404     17405     17406     17405     17407
     17406     17407     17408     17409     17408     17410     17409     17410
     17411     17412     17411     17413     17412     17413     17414     17415
     17414     17416     17415     17416     17417     17418     17417     17419
     17418     17419     17420     17421     17420     17422     17421     17422
     17423     17424     17423     17425     17424     17425     17426     17427
     17426     17428     17427     17428     17429     17430     17429     17431
     17430     17431     17432     17433     17432     17434     17433     17434
     17435     17436     17435     17437     17436     17437     17438     17439
     17438     17440     17439     17440     17441     17442     17441     17443
     17442     17443     17444     17445     17444     17446     17445     17446
     17447     17448     17447     17449     17448     17449     17450     17451
     17450     17452     17451     17452     17453     17454     17453     17455
     17454     17455     17456     17457     17456     17458     17457     17458
     17459     17460     17459     17461     17460     17461     17462     17463
     17462     17464     17463     17464     17465     17466     17465     17467
     17466     17467     17468     17469     17468     17470     17469     17470
     17471     17472     17471     17473     17472     17473     17474     17475
     17474     17476     17475     17476     17477     17478     17477     17479
     17478     17479     17480     17481     17480     17482     17481     17482
     17483     17484     17483     17485     17484     17485     17486     17487
     17486     17488     17487     17488     17489     17490     17489     17491
     17490     17491     17492     17493     17492     17494     17493     17494
     17495     17496     17495     17497     17496     17497     17498     17499
     17498     17500     17499     17500     17501     17502     17501     17503
     17502     17503     17504     17505     17504     17506     17505     17506
     17507     17508     17507     17509     17508     17509     17510     17511
     17510     17512     17511     17512     17513     17514     17513     17515
     17514     17515     17516     17517     17516     17518     17517     17518
     17519     17520     17519     17521     17520     17521     17522     17523
     17522     17524     17523     17524     17525     17526     17525     17527
     17526     17527     17528     17529     17528     17530     17529     17530
     17531     17532     17531     17533     17532     17533     17534     17535
     17534     17536     17535     17536     17537     17538     17537     17539
     17538     17539     17540     17541     17540     17542     17541     17542
     17543     17544     17543     17545     17544     17545     17546     17547
     17546     17548     17547     17548     17549     17550     17549     17551
     17550     17551     17552     17553     17552     17554     17553     17554
     17555     17556     17555     17557     17556     17557     17558     17559
     17558     17560     17559     17560     17561     17562     17561     17563
     17562     17563     17564     17565     17564     17566     17565     17566
     17567     17568     17567     17569     17568     17569     17570     17571
     17570     17572     17571     17572     17573     17574     17573     17575
     17574     17575     17576     17577     17576     17578     17577     17578
     17579     17580     17579     17581     17580     17581     17582     17583
     17582     17584     17583     17584     17585     17586     17585     17587
     17586     17587     17588     17589     17588     17590     17589     17590
     17591     17592     17591     17593     17592     17593     17594     17595
     17594     17596     17595     17596     17597     17598     17597     17599
     17598     17599     17600     17601     17600     17602     17601     17602
     17603     17604     17603     17605     17604     17605     17606     17607
     17606     17608     17607     17608     17609     17610     17609     17611
     17610     17611     17612     17613     17612     17614     17613     17614
     17615     17616     17615     17617     17616     17617     17618     17619
     17618     17620     17619     17620     17621     17622     17621     17623
     17622     17623     17624     17625     17624     17626     17625     17626
     17627     17628     17627     17629     17628     17629     17630     17631
     17630     17632     17631     17632     17633     17634     17633     17635
     17634     17635     17636     17637     17636     17638     17637     17638
     17639     17640     17639     17641     17640     17641     17642     17643
     17642     17644     17643     17644     17645     17646     17645     17647
     17646     17647     17648     17649     17648     17650     17649     17650
     17651     17652     17651     17653     17652     17653     17654     17655
     17654     17656     17655     17656     17657     17658     17657     17659
     17658     17659     17660     17661     17660     17662     17661     17662
     17663     17664     17663     17665     17664     17665     17666     17667
     17666     17668     17667     17668     17669     17670     17669     17671
     17670     17671     17672     17673     17672     17674     17673     17674
     17675     17676     17675     17677     17676     17677     17678     17679
     17678     17680     17679     17680     17681     17682     17681     17683
     17682     17683     17684     17685     17684     17686     17685     17686
     17687     17688     17687     17689     17688     17689     17690     17691
     17690     17692     17691     17692     17693     17694     17693     17695
     17694     17695     17696     17697     17696     17698     17697     17698
     17699     17700     17699     17701     17700     17701     17702     17703
     17702     17704     17703     17704     17705     17706     17705     17707
     17706     17707     17708     17709     17708     17710     17709     17710
     17711     17712     17711     17713     17712     17713     17714     17715
     17714     17716     17715     17716     17717     17718     17717     17719
     17718     17719     17720     17721     17720     17722     17721     17722
     17723     17724     17723     17725     17724     17725     17726     17727
     17726     17728     17727     17728     17729     17730     17729     17731
     17730     17731     17732     17733     17732     17734     17733     17734
     17735     17736     17735     17737     17736     17737     17738     17739
     17738     17740     17739     17740     17741     17742     17741     17743
     17742     17743     17744     17745     17744     17746     17745     17746
     17747     17748     17747     17749     17748     17749     17750     17751
     17750     17752     17751     17752     17753     17754     17753     17755
     17754     17755     17756     17757     17756     17758     17757     17758
     17759     17760     17759     17761     17760     17761     17762     17763
     17762     17764     17763     17764     17765     17766     17765     17767
     17766     17767     17768     17769     17768     17770     17769     17770
     17771     17772     17771     17773     17772     17773     17774     17775
     17774     17776     17775     17776     17777     17778     17777     17779
     17778     17779     17780     17781     17780     17782     17781     17782
     17783     17784     17783     17785     17784     17785     17786     17787
     17786     17788     17787     17788     17789     17790     17789     17791
     17790     17791     17792     17793     17792     17794     17793     17794
     17795     17796     17795     17797     17796     17797     17798     17799
     17798     17800     17799     17800     17801     17802     17801     17803
     17802     17803     17804     17805     17804     17806     17805     17806
     17807     17808     17807     17809     17808     17809     17810     17811
     17810     17812     17811     17812     17813     17814     17813     17815
     17814     17815     17816     17817     17816     17818     17817     17818
     17819     17820     17819     17821     17820     17821     17822     17823
     17822     17824     17823     17824     17825     17826     17825     17827
     17826     17827     17828     17829     17828     17830     17829     17830
     17831     17832     17831     17833     17832     17833     17834     17835
     17834     17836     17835     17836     17837     17838     17837     17839
     17838     17839     17840     17841     17840     17842     17841     17842
     17843     17844     17843     17845     17844     17845     17846     17847
     17846     17848     17847     17848     17849     17850     17849     17851
     17850     17851     17852     17853     17852     17854     17853     17854
     17855     17856     17855     17857     17856     17857     17858     17859
     17858     17860     17859     17860     17861     17862     17861     17863
     17862     17863     17864     17865     17864     17866     17865     17866
     17867     17868     17867     17869     17868     17869     17870     17871
     17870     17872     17871     17872     17873     17874     17873     17875
     17874     17875     17876     17877     17876     17878     17877     17878
     17879     17880     17879     17881     17880     17881     17882     17883
     17882     17884     17883     17884     17885     17886     17885     17887
     17886     17887     17888     17889     17888     17890     17889     17890
     17891     17892     17891     17893     17892     17893     17894     17895
     17894     17896     17895     17896     17897     17898     17897     17899
     17898     17899     17900     17901     17900     17902     17901     17902
     17903     17904     17903     17905     17904     17905     17906     17907
     17906     17908     17907     17908     17909     17910     17909     17911
     17910     17911     17912     17913     17912     17914     17913     17914
     17915     17916     17915     17917     17916     17917     17918     17919
     17918     17920     17919     17920     17921     17922     17921     17923
     17922     17923     17924     17925     17924     17926     17925     17926
     17927     17928     17927     17929     17928     17929     17930     17931
     17930     17932     17931     17932     17933     17934     17933     17935
     17934     17935     17936     17937     17936     17938     17937     17938
     17939     17940     17939     17941     17940     17941     17942     17943
     17942     17944     17943     17944     17945     17946     17945     17947
     17946     17947     17948     17949     17948     17950     17949     17950
     17951     17952     17951     17953     17952     17953     17954     17955
     17954     17956     17955     17956     17957     17958     17957     17959
     17958     17959     17960     17961     17960     17962     17961     17962
     17963     17964     17963     17965     17964     17965     17966     17967
     17966     17968     17967     17968     17969     17970     17969     17971
     17970     17971     17972     17973     17972     17974     17973     17974
     17975     17976     17975     17977     17976     17977     17978     17979
     17978     17980     17979     17980     17981     17982     17981     17983
     17982     17983     17984     17985     17984     17986     17985     17986
     17987     17988     17987     17989     17988     17989     17990     17991
     17990     17992     17991     17992     17993     17994     17993     17995
     17994     17995     17996     17997     17996     17998     17997     17998
     17999     18000     17999     18001     18000     18001     18002     18003
     18002     18004     18003     18004     18005     18006     18005     18007
     18006     18007     18008     18009     18008     18010     18009     18010
     18011     18012     18011     18013     18012     18013     18014     18015
     18014     18016     18015     18016     18017     18018     18017     18019
     18018     18019     18020     18021     18020     18022     18021     18022
     18023     18024     18023     18025     18024     18025     18026     18027
     18026     18028     18027     18028     18029     18030     18029     18031
     18030     18031     18032     18033     18032     18034     18033     18034
     18035     18036     18035     18037     18036     18037     18038     18039
     18038     18040     18039     18040     18041     18042     18041     18043
     18042     18043     18044     18045     18044     18046     18045     18046
     18047     18048     18047     18049     18048     18049     18050     18051
     18050     18052     18051     18052     18053     18054     18053     18055
     18054     18055     18056     18057     18056     18058     18057     18058
     18059     18060     18059     18061     18060     18061     18062     18063
     18062     18064     18063     18064     18065     18066     18065     18067
     18066     18067     18068     18069     18068     18070     18069     18070
     18071     18072     18071     18073     18072     18073     18074     18075
     18074     18076     18075     18076     18077     18078     18077     18079
     18078     18079     18080     18081     18080     18082     18081     18082
     18083     18084     18083     18085     18084     18085     18086     18087
     18086     18088     18087     18088     18089     18090     18089     18091
     18090     18091     18092     18093     18092     18094     18093     18094
     18095     18096     18095     18097     18096     18097     18098     18099
     18098     18100     18099     18100     18101     18102     18101     18103
     18102     18103     18104     18105     18104     18106     18105     18106
     18107     18108     18107     18109     18108     18109     18110     18111
     18110     18112     18111     18112     18113     18114     18113     18115
     18114     18115     18116     18117     18116     18118     18117     18118
     18119     18120     18119     18121     18120     18121     18122     18123
     18122     18124     18123     18124     18125     18126     18125     18127
     18126     18127     18128     18129     18128     18130     18129     18130
     18131     18132     18131     18133     18132     18133     18134     18135
     18134     18136     18135     18136     18137     18138     18137     18139
     18138     18139     18140     18141     18140     18142     18141     18142
     18143     18144     18143     18145     18144     18145     18146     18147
     18146     18148     18147     18148     18149     18150     18149     18151
     18150     18151     18152     18153     18152     18154     18153     18154
     18155     18156     18155     18157     18156     18157     18158     18159
     18158     18160     18159     18160     18161     18162     18161     18163
     18162     18163     18164     18165     18164     18166     18165     18166
     18167     18168     18167     18169     18168     18169     18170     18171
     18170     18172     18171     18172     18173     18174     18173     18175
     18174     18175     18176     18177     18176     18178     18177     18178
     18179     18180     18179     18181     18180     18181     18182     18183
     18182     18184     18183     18184     18185     18186     18185     18187
     18186     18187     18188     18189     18188     18190     18189     18190
     18191     18192     18191     18193     18192     18193     18194     18195
     18194     18196     18195     18196     18197     18198     18197     18199
     18198     18199     18200     18201     18200     18202     18201     18202
     18203     18204     18203     18205     18204     18205     18206     18207
     18206     18208     18207     18208     18209     18210     18209     18211
     18210     18211     18212     18213     18212     18214     18213     18214
     18215     18216     18215     18217     18216     18217     18218     18219
     18218     18220     18219     18220     18221     18222     18221     18223
     18222     18223     18224     18225     18224     18226     18225     18226
     18227     18228     18227     18229     18228     18229     18230     18231
     18230     18232     18231     18232     18233     18234     18233     18235
     18234     18235     18236     18237     18236     18238     18237     18238
     18239     18240     18239     18241     18240     18241     18242     18243
     18242     18244     18243     18244     18245     18246     18245     18247
     18246     18247     18248     18249     18248     18250     18249     18250
     18251     18252     18251     18253     18252     18253     18254     18255
     18254     18256     18255     18256     18257     18258     18257     18259
     18258     18259     18260     18261     18260     18262     18261     18262
     18263     18264     18263     18265     18264     18265     18266     18267
     18266     18268     18267     18268     18269     18270     18269     18271
     18270     18271     18272     18273     18272     18274     18273     18274
     18275     18276     18275     18277     18276     18277     18278     18279
     18278     18280     18279     18280     18281     18282     18281     18283
     18282     18283     18284     18285     18284     18286     18285     18286
     18287     18288     18287     18289     18288     18289     18290     18291
     18290     18292     18291     18292     18293     18294     18293     18295
     18294     18295     18296     18297     18296     18298     18297     18298
     18299     18300     18299     18301     18300     18301     18302     18303
     18302     18304     18303     18304     18305     18306     18305     18307
     18306     18307     18308     18309     18308     18310     18309     18310
     18311     18312     18311     18313     18312     18313     18314     18315
     18314     18316     18315     18316     18317     18318     18317     18319
     18318     18319     18320     18321     18320     18322     18321     18322
     18323     18324     18323     18325     18324     18325     18326     18327
     18326     18328     18327     18328     18329     18330     18329     18331
     18330     18331     18332     18333     18332     18334     18333     18334
     18335     18336     18335     18337     18336     18337     18338     18339
     18338     18340     18339     18340     18341     18342     18341     18343
     18342     18343     18344     18345     18344     18346     18345     18346
     18347     18348     18347     18349     18348     18349     18350     18351
     18350     18352     18351     18352     18353     18354     18353     18355
     18354     18355     18356     18357     18356     18358     18357     18358
     18359     18360     18359     18361     18360     18361     18362     18363
     18362     18364     18363     18364     18365     18366     18365     18367
     18366     18367     18368     18369     18368     18370     18369     18370
     18371     18372     18371     18373     18372     18373     18374     18375
     18374     18376     18375     18376     18377     18378     18377     18379
     18378     18379     18380     18381     18380     18382     18381     18382
     18383     18384     18383     18385     18384     18385     18386     18387
     18386     18388     18387     18388     18389     18390     18389     18391
     18390     18391     18392     18393     18392     18394     18393     18394
     18395     18396     18395     18397     18396     18397     18398     18399
     18398     18400     18399     18400     18401     18402     18401     18403
     18402     18403     18404     18405     18404     18406     18405     18406
     18407     18408     18407     18409     18408     18409     18410     18411
     18410     18412     18411     18412     18413     18414     18413     18415
     18414     18415     18416     18417     18416     18418     18417     18418
     18419     18420     18419     18421     18420     18421     18422     18423
     18422     18424     18423     18424     18425     18426     18425     18427
     18426     18427     18428     18429     18428     18430     18429     18430
     18431     18432     18431     18433     18432     18433     18434     18435
     18434     18436     18435     18436     18437     18438     18437     18439
     18438     18439     18440     18441     18440     18442     18441     18442
     18443     18444     18443     18445     18444     18445     18446     18447
     18446     18448     18447     18448     18449     18450     18449     18451
     18450     18451     18452     18453     18452     18454     18453     18454
     18455     18456     18455     18457     18456     18457     18458     18459
     18458     18460     18459     18460     18461     18462     18461     18463
     18462     18463     18464     18465     18464     18466     18465     18466
     18467     18468     18467     18469     18468     18469     18470     18471
     18470     18472     18471     18472     18473     18474     18473     18475
     18474     18475     18476     18477     18476     18478     18477     18478
     18479     18480     18479     18481     18480     18481     18482     18483
     18482     18484     18483     18484     18485     18486     18485     18487
     18486     18487     18488     18489     18488     18490     18489     18490
     18491     18492     18491     18493     18492     18493     18494     18495
     18494     18496     18495     18496     18497     18498     18497     18499
     18498     18499     18500     18501     18500     18502     18501     18502
     18503     18504     18503     18505     18504     18505     18506     18507
     18506     18508     18507     18508     18509     18510     18509     18511
     18510     18511     18512     18513     18512     18514     18513     18514
     18515     18516     18515     18517     18516     18517     18518     18519
     18518     18520     18519     18520     18521     18522     18521     18523
     18522     18523     18524     18525     18524     18526     18525     18526
     18527     18528     18527     18529     18528     18529     18530     18531
     18530     18532     18531     18532     18533     18534     18533     18535
     18534     18535     18536     18537     18536     18538     18537     18538
     18539     18540     18539     18541     18540     18541     18542     18543
     18542     18544     18543     18544     18545     18546     18545     18547
     18546     18547     18548     18549     18548     18550     18549     18550
     18551     18552     18551     18553     18552     18553     18554     18555
     18554     18556     18555     18556     18557     18558     18557     18559
     18558     18559     18560     18561     18560     18562     18561     18562
     18563     18564     18563     18565     18564     18565     18566     18567
     18566     18568     18567     18568     18569     18570     18569     18571
     18570     18571     18572     18573     18572     18574     18573     18574
     18575     18576     18575     18577     18576     18577     18578     18579
     18578     18580     18579     18580     18581     18582     18581     18583
     18582     18583     18584     18585     18584     18586     18585     18586
     18587     18588     18587     18589     18588     18589     18590     18591
     18590     18592     18591     18592     18593     18594     18593     18595
     18594     18595     18596     18597     18596     18598     18597     18598
     18599     18600     18599     18601     18600     18601     18602     18603
     18602     18604     18603     18604     18605     18606     18605     18607
     18606     18607     18608     18609     18608     18610     18609     18610
     18611     18612     18611     18613     18612     18613     18614     18615
     18614     18616     18615     18616     18617     18618     18617     18619
     18618     18619     18620     18621     18620     18622     18621     18622
     18623     18624     18623     18625     18624     18625     18626     18627
     18626     18628     18627     18628     18629     18630     18629     18631
     18630     18631     18632     18633     18632     18634     18633     18634
     18635     18636     18635     18637     18636     18637     18638     18639
     18638     18640     18639     18640     18641     18642     18641     18643
     18642     18643     18644     18645     18644     18646     18645     18646
     18647     18648     18647     18649     18648     18649     18650     18651
     18650     18652     18651     18652     18653     18654     18653     18655
     18654     18655     18656     18657     18656     18658     18657     18658
     18659     18660     18659     18661     18660     18661     18662     18663
     18662     18664     18663     18664     18665     18666     18665     18667
     18666     18667     18668     18669     18668     18670     18669     18670
     18671     18672     18671     18673     18672     18673     18674     18675
     18674     18676     18675     18676     18677     18678     18677     18679
     18678     18679     18680     18681     18680     18682     18681     18682
     18683     18684     18683     18685     18684     18685     18686     18687
     18686     18688     18687     18688     18689     18690     18689     18691
     18690     18691     18692     18693     18692     18694     18693     18694
     18695     18696     18695     18697     18696     18697     18698     18699
     18698     18700     18699     18700     18701     18702     18701     18703
     18702     18703     18704     18705     18704     18706     18705     18706
     18707     18708     18707     18709     18708     18709     18710     18711
     18710     18712     18711     18712     18713     18714     18713     18715
     18714     18715     18716     18717     18716     18718     18717     18718
     18719     18720     18719     18721     18720     18721     18722     18723
     18722     18724     18723     18724     18725     18726     18725     18727
     18726     18727     18728     18729     18728     18730     18729     18730
     18731     18732     18731     18733     18732     18733     18734     18735
     18734     18736     18735     18736     18737     18738     18737     18739
     18738     18739     18740     18741     18740     18742     18741     18742
     18743     18744     18743     18745     18744     18745     18746     18747
     18746     18748     18747     18748     18749     18750     18749     18751
     18750     18751     18752     18753     18752     18754     18753     18754
     18755     18756     18755     18757     18756     18757     18758     18759
     18758     18760     18759     18760     18761     18762     18761     18763
     18762     18763     18764     18765     18764     18766     18765     18766
     18767     18768     18767     18769     18768     18769     18770     18771
     18770     18772     18771     18772     18773     18774     18773     18775
     18774     18775     18776     18777     18776     18778     18777     18778
     18779     18780     18779     18781     18780     18781     18782     18783
     18782     18784     18783     18784     18785     18786     18785     18787
     18786     18787     18788     18789     18788     18790     18789     18790
     18791     18792     18791     18793     18792     18793     18794     18795
     18794     18796     18795     18796     18797     18798     18797     18799
     18798     18799     18800     18801     18800     18802     18801     18802
     18803     18804     18803     18805     18804     18805     18806     18807
     18806     18808     18807     18808     18809     18810     18809     18811
     18810     18811     18812     18813     18812     18814     18813     18814
     18815     18816     18815     18817     18816     18817     18818     18819
     18818     18820     18819     18820     18821     18822     18821     18823
     18822     18823     18824     18825     18824     18826     18825     18826
     18827     18828     18827     18829     18828     18829     18830     18831
     18830     18832     18831     18832     18833     18834     18833     18835
     18834     18835     18836     18837     18836     18838     18837     18838
     18839     18840     18839     18841     18840     18841     18842     18843
     18842     18844     18843     18844     18845     18846     18845     18847
     18846     18847     18848     18849     18848     18850     18849     18850
     18851     18852     18851     18853     18852     18853     18854     18855
     18854     18856     18855     18856     18857     18858     18857     18859
     18858     18859     18860     18861     18860     18862     18861     18862
     18863     18864     18863     18865     18864     18865     18866     18867
     18866     18868     18867     18868     18869     18870     18869     18871
     18870     18871     18872     18873     18872     18874     18873     18874
     18875     18876     18875     18877     18876     18877     18878     18879
     18878     18880     18879     18880     18881     18882     18881     18883
     18882     18883     18884     18885     18884     18886     18885     18886
     18887     18888     18887     18889     18888     18889     18890     18891
     18890     18892     18891     18892     18893     18894     18893     18895
     18894     18895     18896     18897     18896     18898     18897     18898
     18899     18900     18899     18901     18900     18901     18902     18903
     18902     18904     18903     18904     18905     18906     18905     18907
     18906     18907     18908     18909     18908     18910     18909     18910
     18911     18912     18911     18913     18912     18913     18914     18915
     18914     18916     18915     18916     18917     18918     18917     18919
     18918     18919     18920     18921     18920     18922     18921     18922
     18923     18924     18923     18925     18924     18925     18926     18927
     18926     18928     18927     18928     18929     18930     18929     18931
     18930     18931     18932     18933     18932     18934     18933     18934
     18935     18936     18935     18937     18936     18937     18938     18939
     18938     18940     18939     18940     18941     18942     18941     18943
     18942     18943     18944     18945     18944     18946     18945     18946
     18947     18948     18947     18949     18948     18949     18950     18951
     18950     18952     18951     18952     18953     18954     18953     18955
     18954     18955     18956     18957     18956     18958     18957     18958
     18959     18960     18959     18961     18960     18961     18962     18963
     18962     18964     18963     18964     18965     18966     18965     18967
     18966     18967     18968     18969     18968     18970     18969     18970
     18971     18972     18971     18973     18972     18973     18974     18975
     18974     18976     18975     18976     18977     18978     18977     18979
     18978     18979     18980     18981     18980     18982     18981     18982
     18983     18984     18983     18985     18984     18985     18986     18987
     18986     18988     18987     18988     18989     18990     18989     18991
     18990     18991     18992     18993     18992     18994     18993     18994
     18995     18996     18995     18997     18996     18997     18998     18999
     18998     19000     18999     19000     19001     19002     19001     19003
     19002     19003     19004     19005     19004     19006     19005     19006
     19007     19008     19007     19009     19008     19009     19010     19011
     19010     19012     19011     19012     19013     19014     19013     19015
     19014     19015     19016     19017     19016     19018     19017     19018
     19019     19020     19019     19021     19020     19021     19022     19023
     19022     19024     19023     19024     19025     19026     19025     19027
     19026     19027     19028     19029     19028     19030     19029     19030
     19031     19032     19031     19033     19032     19033     19034     19035
     19034     19036     19035     19036     19037     19038     19037     19039
     19038     19039     19040     19041     19040     19042     19041     19042
     19043     19044     19043     19045     19044     19045     19046     19047
     19046     19048     19047     19048     19049     19050     19049     19051
     19050     19051     19052     19053     19052     19054     19053     19054
     19055     19056     19055     19057     19056     19057     19058     19059
     19058     19060     19059     19060     19061     19062     19061     19063
     19062     19063     19064     19065     19064     19066     19065     19066
     19067     19068     19067     19069     19068     19069     19070     19071
     19070     19072     19071     19072     19073     19074     19073     19075
     19074     19075     19076     19077     19076     19078     19077     19078
     19079     19080     19079     19081     19080     19081     19082     19083
     19082     19084     19083     19084     19085     19086     19085     19087
     19086     19087     19088     19089     19088     19090     19089     19090
     19091     19092     19091     19093     19092     19093     19094     19095
     19094     19096     19095     19096     19097     19098     19097     19099
     19098     19099     19100     19101     19100     19102     19101     19102
     19103     19104     19103     19105     19104     19105     19106     19107
     19106     19108     19107     19108     19109     19110     19109     19111
     19110     19111     19112     19113     19112     19114     19113     19114
     19115     19116     19115     19117     19116     19117     19118     19119
     19118     19120     19119     19120     19121     19122     19121     19123
     19122     19123     19124     19125     19124     19126     19125     19126
     19127     19128     19127     19129     19128     19129     19130     19131
     19130     19132     19131     19132     19133     19134     19133     19135
     19134     19135     19136     19137     19136     19138     19137     19138
     19139     19140     19139     19141     19140     19141     19142     19143
     19142     19144     19143     19144     19145     19146     19145     19147
     19146     19147     19148     19149     19148     19150     19149     19150
     19151     19152     19151     19153     19152     19153     19154     19155
     19154     19156     19155     19156     19157     19158     19157     19159
     19158     19159     19160     19161     19160     19162     19161     19162
     19163     19164     19163     19165     19164     19165     19166     19167
     19166     19168     19167     19168     19169     19170     19169     19171
     19170     19171     19172     19173     19172     19174     19173     19174
     19175     19176     19175     19177     19176     19177     19178     19179
     19178     19180     19179     19180     19181     19182     19181     19183
     19182     19183     19184     19185     19184     19186     19185     19186
     19187     19188     19187     19189     19188     19189     19190     19191
     19190     19192     19191     19192     19193     19194     19193     19195
     19194     19195     19196     19197     19196     19198     19197     19198
     19199     19200     19199     19201     19200     19201     19202     19203
     19202     19204     19203     19204     19205     19206     19205     19207
     19206     19207     19208     19209     19208     19210     19209     19210
     19211     19212     19211     19213     19212     19213     19214     19215
     19214     19216     19215     19216     19217     19218     19217     19219
     19218     19219     19220     19221     19220     19222     19221     19222
     19223     19224     19223     19225     19224     19225     19226     19227
     19226     19228     19227     19228     19229     19230     19229     19231
     19230     19231     19232     19233     19232     19234     19233     19234
     19235     19236     19235     19237     19236     19237     19238     19239
     19238     19240     19239     19240     19241     19242     19241     19243
     19242     19243     19244     19245     19244     19246     19245     19246
     19247     19248     19247     19249     19248     19249     19250     19251
     19250     19252     19251     19252     19253     19254     19253     19255
     19254     19255     19256     19257     19256     19258     19257     19258
     19259     19260     19259     19261     19260     19261     19262     19263
     19262     19264     19263     19264     19265     19266     19265     19267
     19266     19267     19268     19269     19268     19270     19269     19270
     19271     19272     19271     19273     19272     19273     19274     19275
     19274     19276     19275     19276     19277     19278     19277     19279
     19278     19279     19280     19281     19280     19282     19281     19282
     19283     19284     19283     19285     19284     19285     19286     19287
     19286     19288     19287     19288     19289     19290     19289     19291
     19290     19291     19292     19293     19292     19294     19293     19294
     19295     19296     19295     19297     19296     19297     19298     19299
     19298     19300     19299     19300     19301     19302     19301     19303
     19302     19303     19304     19305     19304     19306     19305     19306
     19307     19308     19307     19309     19308     19309     19310     19311
     19310     19312     19311     19312     19313     19314     19313     19315
     19314     19315     19316     19317     19316     19318     19317     19318
     19319     19320     19319     19321     19320     19321     19322     19323
     19322     19324     19323     19324     19325     19326     19325     19327
     19326     19327     19328     19329     19328     19330     19329     19330
     19331     19332     19331     19333     19332     19333     19334     19335
     19334     19336     19335     19336     19337     19338     19337     19339
     19338     19339     19340     19341     19340     19342     19341     19342
     19343     19344     19343     19345     19344     19345     19346     19347
     19346     19348     19347     19348     19349     19350     19349     19351
     19350     19351     19352     19353     19352     19354     19353     19354
     19355     19356     19355     19357     19356     19357     19358     19359
     19358     19360     19359     19360     19361     19362     19361     19363
     19362     19363     19364     19365     19364     19366     19365     19366
     19367     19368     19367     19369     19368     19369     19370     19371
     19370     19372     19371     19372     19373     19374     19373     19375
     19374     19375     19376     19377     19376     19378     19377     19378
     19379     19380     19379     19381     19380     19381     19382     19383
     19382     19384     19383     19384     19385     19386     19385     19387
     19386     19387     19388     19389     19388     19390     19389     19390
     19391     19392     19391     19393     19392     19393     19394     19395
     19394     19396     19395     19396     19397     19398     19397     19399
     19398     19399     19400     19401     19400     19402     19401     19402
     19403     19404     19403     19405     19404     19405     19406     19407
     19406     19408     19407     19408     19409     19410     19409     19411
     19410     19411     19412     19413     19412     19414     19413     19414
     19415     19416     19415     19417     19416     19417     19418     19419
     19418     19420     19419     19420     19421     19422     19421     19423
     19422     19423     19424     19425     19424     19426     19425     19426
     19427     19428     19427     19429     19428     19429     19430     19431
     19430     19432     19431     19432     19433     19434     19433     19435
     19434     19435     19436     19437     19436     19438     19437     19438
     19439     19440     19439     19441     19440     19441     19442     19443
     19442     19444     19443     19444     19445     19446     19445     19447
     19446     19447     19448     19449     19448     19450     19449     19450
     19451     19452     19451     19453     19452     19453     19454     19455
     19454     19456     19455     19456     19457     19458     19457     19459
     19458     19459     19460     19461     19460     19462     19461     19462
     19463     19464     19463     19465     19464     19465     19466     19467
     19466     19468     19467     19468     19469     19470     19469     19471
     19470     19471     19472     19473     19472     19474     19473     19474
     19475     19476     19475     19477     19476     19477     19478     19479
     19478     19480     19479     19480     19481     19482     19481     19483
     19482     19483     19484     19485     19484     19486     19485     19486
     19487     19488     19487     19489     19488     19489     19490     19491
     19490     19492     19491     19492     19493     19494     19493     19495
     19494     19495     19496     19497     19496     19498     19497     19498
     19499     19500     19499     19501     19500     19501     19502     19503
     19502     19504     19503     19504     19505     19506     19505     19507
     19506     19507     19508     19509     19508     19510     19509     19510
     19511     19512     19511     19513     19512     19513     19514     19515
     19514     19516     19515     19516     19517     19518     19517     19519
     19518     19519     19520     19521     19520     19522     19521     19522
     19523     19524     19523     19525     19524     19525     19526     19527
     19526     19528     19527     19528     19529     19530     19529     19531
     19530     19531     19532     19533     19532     19534     19533     19534
     19535     19536     19535     19537     19536     19537     19538     19539
     19538     19540     19539     19540     19541     19542     19541     19543
     19542     19543     19544     19545     19544     19546     19545     19546
     19547     19548     19547     19549     19548     19549     19550     19551
     19550     19552     19551     19552     19553     19554     19553     19555
     19554     19555     19556     19557     19556     19558     19557     19558
     19559     19560     19559     19561     19560     19561     19562     19563
     19562     19564     19563     19564     19565     19566     19565     19567
     19566     19567     19568     19569     19568     19570     19569     19570
     19571     19572     19571     19573     19572     19573     19574     19575
     19574     19576     19575     19576     19577     19578     19577     19579
     19578     19579     19580     19581     19580     19582     19581     19582
     19583     19584     19583     19585     19584     19585     19586     19587
     19586     19588     19587     19588     19589     19590     19589     19591
     19590     19591     19592     19593     19592     19594     19593     19594
     19595     19596     19595     19597     19596     19597     19598     19599
     19598     19600     19599     19600     19601     19602     19601     19603
     19602     19603     19604     19605     19604     19606     19605     19606
     19607     19608     19607     19609     19608     19609     19610     19611
     19610     19612     19611     19612     19613     19614     19613     19615
     19614     19615     19616     19617     19616     19618     19617     19618
     19619     19620     19619     19621     19620     19621     19622     19623
     19622     19624     19623     19624     19625     19626     19625     19627
     19626     19627     19628     19629     19628     19630     19629     19630
     19631     19632     19631     19633     19632     19633     19634     19635
     19634     19636     19635     19636     19637     19638     19637     19639
     19638     19639     19640     19641     19640     19642     19641     19642
     19643     19644     19643     19645     19644     19645     19646     19647
     19646     19648     19647     19648     19649     19650     19649     19651
     19650     19651     19652     19653     19652     19654     19653     19654
     19655     19656     19655     19657     19656     19657     19658     19659
     19658     19660     19659     19660     19661     19662     19661     19663
     19662     19663     19664     19665     19664     19666     19665     19666
     19667     19668     19667     19669     19668     19669     19670     19671
     19670     19672     19671     19672     19673     19674     19673     19675
     19674     19675     19676     19677     19676     19678     19677     19678
     19679     19680     19679     19681     19680     19681     19682     19683
     19682     19684     19683     19684     19685     19686     19685     19687
     19686     19687     19688     19689     19688     19690     19689     19690
     19691     19692     19691     19693     19692     19693     19694     19695
     19694     19696     19695     19696     19697     19698     19697     19699
     19698     19699     19700     19701     19700     19702     19701     19702
     19703     19704     19703     19705     19704     19705     19706     19707
     19706     19708     19707     19708     19709     19710     19709     19711
     19710     19711     19712     19713     19712     19714     19713     19714
     19715     19716     19715     19717     19716     19717     19718     19719
     19718     19720     19719     19720     19721     19722     19721     19723
     19722     19723     19724     19725     19724     19726     19725     19726
     19727     19728     19727     19729     19728     19729     19730     19731
     19730     19732     19731     19732     19733     19734     19733     19735
     19734     19735     19736     19737     19736     19738     19737     19738
     19739     19740     19739     19741     19740     19741     19742     19743
     19742     19744     19743     19744     19745     19746     19745     19747
     19746     19747     19748     19749     19748     19750     19749     19750
     19751     19752     19751     19753     19752     19753     19754     19755
     19754     19756     19755     19756     19757     19758     19757     19759
     19758     19759     19760     19761     19760     19762     19761     19762
     19763     19764     19763     19765     19764     19765     19766     19767
     19766     19768     19767     19768     19769     19770     19769     19771
     19770     19771     19772     19773     19772     19774     19773     19774
     19775     19776     19775     19777     19776     19777     19778     19779
     19778     19780     19779     19780     19781     19782     19781     19783
     19782     19783     19784     19785     19784     19786     19785     19786
     19787     19788     19787     19789     19788     19789     19790     19791
     19790     19792     19791     19792     19793     19794     19793     19795
     19794     19795     19796     19797     19796     19798     19797     19798
     19799     19800     19799     19801     19800     19801     19802     19803
     19802     19804     19803     19804     19805     19806     19805     19807
     19806     19807     19808     19809     19808     19810     19809     19810
     19811     19812     19811     19813     19812     19813     19814     19815
     19814     19816     19815     19816     19817     19818     19817     19819
     19818     19819     19820     19821     19820     19822     19821     19822
     19823     19824     19823     19825     19824     19825     19826     19827
     19826     19828     19827     19828     19829     19830     19829     19831
     19830     19831     19832     19833     19832     19834     19833     19834
     19835     19836     19835     19837     19836     19837     19838     19839
     19838     19840     19839     19840     19841     19842     19841     19843
     19842     19843     19844     19845     19844     19846     19845     19846
     19847     19848     19847     19849     19848     19849     19850     19851
     19850     19852     19851     19852     19853     19854     19853     19855
     19854     19855     19856     19857     19856     19858     19857     19858
     19859     19860     19859     19861     19860     19861     19862     19863
     19862     19864     19863     19864     19865     19866     19865     19867
     19866     19867     19868     19869     19868     19870     19869     19870
     19871     19872     19871     19873     19872     19873     19874     19875
     19874     19876     19875     19876     19877     19878     19877     19879
     19878     19879     19880     19881     19880     19882     19881     19882
     19883     19884     19883     19885     19884     19885     19886     19887
     19886     19888     19887     19888     19889     19890     19889     19891
     19890     19891     19892     19893     19892     19894     19893     19894
     19895     19896     19895     19897     19896     19897     19898     19899
     19898     19900     19899     19900     19901     19902     19901     19903
     19902     19903     19904     19905     19904     19906     19905     19906
     19907     19908     19907     19909     19908     19909     19910     19911
     19910     19912     19911     19912     19913     19914     19913     19915
     19914     19915     19916     19917     19916     19918     19917     19918
     19919     19920     19919     19921     19920     19921     19922     19923
     19922     19924     19923     19924     19925     19926     19925     19927
     19926     19927     19928     19929     19928     19930     19929     19930
     19931     19932     19931     19933     19932     19933     19934     19935
     19934     19936     19935     19936     19937     19938     19937     19939
     19938     19939     19940     19941     19940     19942     19941     19942
     19943     19944     19943     19945     19944     19945     19946     19947
     19946     19948     19947     19948     19949     19950     19949     19951
     19950     19951     19952     19953     19952     19954     19953     19954
     19955     19956     19955     19957     19956     19957     19958     19959
     19958     19960     19959     19960     19961     19962     19961     19963
     19962     19963     19964     19965     19964     19966     19965     19966
     19967     19968     19967     19969     19968     19969     19970     19971
     19970     19972     19971     19972     19973     19974     19973     19975
     19974     19975     19976     19977     19976     19978     19977     19978
     19979     19980     19979     19981     19980     19981     19982     19983
     19982     19984     19983     19984     19985     19986     19985     19987
     19986     19987     19988     19989     19988     19990     19989     19990
     19991     19992     19991     19993     19992     19993     19994     19995
     19994     19996     19995     19996     19997     19998     19997     19999
     19998     19999     20000     20001     20000     20002     20001     20002
     20003     20004     20003     20005     20004     20005     20006     20007
     20006     20008     20007     20008     20009     20010     20009     20011
     20010     20011     20012     20013     20012     20014     20013     20014
     20015     20016     20015     20017     20016     20017     20018     20019
     20018     20020     20019     20020     20021     20022     20021     20023
     20022     20023     20024     20025     20024     20026     20025     20026
     20027     20028     20027     20029     20028     20029     20030     20031
     20030     20032     20031     20032     20033     20034     20033     20035
     20034     20035     20036     20037     20036     20038     20037     20038
     20039     20040     20039     20041     20040     20041     20042     20043
     20042     20044     20043     20044     20045     20046     20045     20047
     20046     20047     20048     20049     20048     20050     20049     20050
     20051     20052     20051     20053     20052     20053     20054     20055
     20054     20056     20055     20056     20057     20058     20057     20059
     20058     20059     20060     20061     20060     20062     20061     20062
     20063     20064     20063     20065     20064     20065     20066     20067
     20066     20068     20067     20068     20069     20070     20069     20071
     20070     20071     20072     20073     20072     20074     20073     20074
     20075     20076     20075     20077     20076     20077     20078     20079
     20078     20080     20079     20080     20081     20082     20081     20083
     20082     20083     20084     20085     20084     20086     20085     20086
     20087     20088     20087     20089     20088     20089     20090     20091
     20090     20092     20091     20092     20093     20094     20093     20095
     20094     20095     20096     20097     20096     20098     20097     20098
     20099     20100     20099     20101     20100     20101     20102     20103
     20102     20104     20103     20104     20105     20106     20105     20107
     20106     20107     20108     20109     20108     20110     20109     20110
     20111     20112     20111     20113     20112     20113     20114     20115
     20114     20116     20115     20116     20117     20118     20117     20119
     20118     20119     20120     20121     20120     20122     20121     20122
     20123     20124     20123     20125     20124     20125     20126     20127
     20126     20128     20127     20128     20129     20130     20129     20131
     20130     20131     20132     20133     20132     20134     20133     20134
     20135     20136     20135     20137     20136     20137     20138     20139
     20138     20140     20139     20140     20141     20142     20141     20143
     20142     20143     20144     20145     20144     20146     20145     20146
     20147     20148     20147     20149     20148     20149     20150     20151
     20150     20152     20151     20152     20153     20154     20153     20155
     20154     20155     20156     20157     20156     20158     20157     20158
     20159     20160     20159     20161     20160     20161     20162     20163
     20162     20164     20163     20164     20165     20166     20165     20167
     20166     20167     20168     20169     20168     20170     20169     20170
     20171     20172     20171     20173     20172     20173     20174     20175
     20174     20176     20175     20176     20177     20178     20177     20179
     20178     20179     20180     20181     20180     20182     20181     20182
     20183     20184     20183     20185     20184     20185     20186     20187
     20186     20188     20187     20188     20189     20190     20189     20191
     20190     20191     20192     20193     20192     20194     20193     20194
     20195     20196     20195     20197     20196     20197     20198     20199
     20198     20200     20199     20200     20201     20202     20201     20203
     20202     20203     20204     20205     20204     20206     20205     20206
     20207     20208     20207     20209     20208     20209     20210     20211
     20210     20212     20211     20212     20213     20214     20213     20215
     20214     20215     20216     20217     20216     20218     20217     20218
     20219     20220     20219     20221     20220     20221     20222     20223
     20222     20224     20223     20224     20225     20226     20225     20227
     20226     20227     20228     20229     20228     20230     20229     20230
     20231     20232     20231     20233     20232     20233     20234     20235
     20234     20236     20235     20236     20237     20238     20237     20239
     20238     20239     20240     20241     20240     20242     20241     20242
     20243     20244     20243     20245     20244     20245     20246     20247
     20246     20248     20247     20248     20249     20250     20249     20251
     20250     20251     20252     20253     20252     20254     20253     20254
     20255     20256     20255     20257     20256     20257     20258     20259
     20258     20260     20259     20260     20261     20262     20261     20263
     20262     20263     20264     20265     20264     20266     20265     20266
     20267     20268     20267     20269     20268     20269     20270     20271
     20270     20272     20271     20272     20273     20274     20273     20275
     20274     20275     20276     20277     20276     20278     20277     20278
     20279     20280     20279     20281     20280     20281     20282     20283
     20282     20284     20283     20284     20285     20286     20285     20287
     20286     20287     20288     20289     20288     20290     20289     20290
     20291     20292     20291     20293     20292     20293     20294     20295
     20294     20296     20295     20296     20297     20298     20297     20299
     20298     20299     20300     20301     20300     20302     20301     20302
     20303     20304     20303     20305     20304     20305     20306     20307
     20306     20308     20307     20308     20309     20310     20309     20311
     20310     20311     20312     20313     20312     20314     20313     20314
     20315     20316     20315     20317     20316     20317     20318     20319
     20318     20320     20319     20320     20321     20322     20321     20323
     20322     20323     20324     20325     20324     20326     20325     20326
     20327     20328     20327     20329     20328     20329     20330     20331
     20330     20332     20331     20332     20333     20334     20333     20335
     20334     20335     20336     20337     20336     20338     20337     20338
     20339     20340     20339     20341     20340     20341     20342     20343
     20342     20344     20343     20344     20345     20346     20345     20347
     20346     20347     20348     20349     20348     20350     20349     20350
     20351     20352     20351     20353     20352     20353     20354     20355
     20354     20356     20355     20356     20357     20358     20357     20359
     20358     20359     20360     20361     20360     20362     20361     20362
     20363     20364     20363     20365     20364     20365     20366     20367
     20366     20368     20367     20368     20369     20370     20369     20371
     20370     20371     20372     20373     20372     20374     20373     20374
     20375     20376     20375     20377     20376     20377     20378     20379
     20378     20380     20379     20380     20381     20382     20381     20383
     20382     20383     20384     20385     20384     20386     20385     20386
     20387     20388     20387     20389     20388     20389     20390     20391
     20390     20392     20391     20392     20393     20394     20393     20395
     20394     20395     20396     20397     20396     20398     20397     20398
     20399     20400     20399     20401     20400     20401     20402     20403
     20402     20404     20403     20404     20405     20406     20405     20407
     20406     20407     20408     20409     20408     20410     20409     20410
     20411     20412     20411     20413     20412     20413     20414     20415
     20414     20416     20415     20416     20417     20418     20417     20419
     20418     20419     20420     20421     20420     20422     20421     20422
     20423     20424     20423     20425     20424     20425     20426     20427
     20426     20428     20427     20428     20429     20430     20429     20431
     20430     20431     20432     20433     20432     20434     20433     20434
     20435     20436     20435     20437     20436     20437     20438     20439
     20438     20440     20439     20440     20441     20442     20441     20443
     20442     20443     20444     20445     20444     20446     20445     20446
     20447     20448     20447     20449     20448     20449     20450     20451
     20450     20452     20451     20452     20453     20454     20453     20455
     20454     20455     20456     20457     20456     20458     20457     20458
     20459     20460     20459     20461     20460     20461     20462     20463
     20462     20464     20463     20464     20465     20466     20465     20467
     20466     20467     20468     20469     20468     20470     20469     20470
     20471     20472     20471     20473     20472     20473     20474     20475
     20474     20476     20475     20476     20477     20478     20477     20479
     20478     20479     20480     20481     20480     20482     20481     20482
     20483     20484     20483     20485     20484     20485     20486     20487
     20486     20488     20487     20488     20489     20490     20489     20491
     20490     20491     20492     20493     20492     20494     20493     20494
     20495     20496     20495     20497     20496     20497     20498     20499
     20498     20500     20499     20500     20501     20502     20501     20503
     20502     20503     20504     20505     20504     20506     20505     20506
     20507     20508     20507     20509     20508     20509     20510     20511
     20510     20512     20511     20512     20513     20514     20513     20515
     20514     20515     20516     20517     20516     20518     20517     20518
     20519     20520     20519     20521     20520     20521     20522     20523
     20522     20524     20523     20524     20525     20526     20525     20527
     20526     20527     20528     20529     20528     20530     20529     20530
     20531     20532     20531     20533     20532     20533     20534     20535
     20534     20536     20535     20536     20537     20538     20537     20539
     20538     20539     20540     20541     20540     20542     20541     20542
     20543     20544     20543     20545     20544     20545     20546     20547
     20546     20548     20547     20548     20549     20550     20549     20551
     20550     20551     20552     20553     20552     20554     20553     20554
     20555     20556     20555     20557     20556     20557     20558     20559
     20558     20560     20559     20560     20561     20562     20561     20563
     20562     20563     20564     20565     20564     20566     20565     20566
     20567     20568     20567     20569     20568     20569     20570     20571
     20570     20572     20571     20572     20573     20574     20573     20575
     20574     20575     20576     20577     20576     20578     20577     20578
     20579     20580     20579     20581     20580     20581     20582     20583
     20582     20584     20583     20584     20585     20586     20585     20587
     20586     20587     20588     20589     20588     20590     20589     20590
     20591     20592     20591     20593     20592     20593     20594     20595
     20594     20596     20595     20596     20597     20598     20597     20599
     20598     20599     20600     20601     20600     20602     20601     20602
     20603     20604     20603     20605     20604     20605     20606     20607
     20606     20608     20607     20608     20609     20610     20609     20611
     20610     20611     20612     20613     20612     20614     20613     20614
     20615     20616     20615     20617     20616     20617     20618     20619
     20618     20620     20619     20620     20621     20622     20621     20623
     20622     20623     20624     20625     20624     20626     20625     20626
     20627     20628     20627     20629     20628     20629     20630     20631
     20630     20632     20631     20632     20633     20634     20633     20635
     20634     20635     20636     20637     20636     20638     20637     20638
     20639     20640     20639     20641     20640     20641     20642     20643
     20642     20644     20643     20644     20645     20646     20645     20647
     20646     20647     20648     20649     20648     20650     20649     20650
     20651     20652     20651     20653     20652     20653     20654     20655
     20654     20656     20655     20656     20657     20658     20657     20659
     20658     20659     20660     20661     20660     20662     20661     20662
     20663     20664     20663     20665     20664     20665     20666     20667
     20666     20668     20667     20668     20669     20670     20669     20671
     20670     20671     20672     20673     20672     20674     20673     20674
     20675     20676     20675     20677     20676     20677     20678     20679
     20678     20680     20679     20680     20681     20682     20681     20683
     20682     20683     20684     20685     20684     20686     20685     20686
     20687     20688     20687     20689     20688     20689     20690     20691
     20690     20692     20691     20692     20693     20694     20693     20695
     20694     20695     20696     20697     20696     20698     20697     20698
     20699     20700     20699     20701     20700     20701     20702     20703
     20702     20704     20703     20704     20705     20706     20705     20707
     20706     20707     20708     20709     20708     20710     20709     20710
     20711     20712     20711     20713     20712     20713     20714     20715
     20714     20716     20715     20716     20717     20718     20717     20719
     20718     20719     20720     20721     20720     20722     20721     20722
     20723     20724     20723     20725     20724     20725     20726     20727
     20726     20728     20727     20728     20729     20730     20729     20731
     20730     20731     20732     20733     20732     20734     20733     20734
     20735     20736     20735     20737     20736     20737     20738     20739
     20738     20740     20739     20740     20741     20742     20741     20743
     20742     20743     20744     20745     20744     20746     20745     20746
     20747     20748     20747     20749     20748     20749     20750     20751
     20750     20752     20751     20752     20753     20754     20753     20755
     20754     20755     20756     20757     20756     20758     20757     20758
     20759     20760     20759     20761     20760     20761     20762     20763
     20762     20764     20763     20764     20765     20766     20765     20767
     20766     20767     20768     20769     20768     20770     20769     20770
     20771     20772     20771     20773     20772     20773     20774     20775
     20774     20776     20775     20776     20777     20778     20777     20779
     20778     20779     20780     20781     20780     20782     20781     20782
     20783     20784     20783     20785     20784     20785     20786     20787
     20786     20788     20787     20788     20789     20790     20789     20791
     20790     20791     20792     20793     20792     20794     20793     20794
     20795     20796     20795     20797     20796     20797     20798     20799
     20798     20800     20799     20800     20801     20802     20801     20803
     20802     20803     20804     20805     20804     20806     20805     20806
     20807     20808     20807     20809     20808     20809     20810     20811
     20810     20812     20811     20812     20813     20814     20813     20815
     20814     20815     20816     20817     20816     20818     20817     20818
     20819     20820     20819     20821     20820     20821     20822     20823
     20822     20824     20823     20824     20825     20826     20825     20827
     20826     20827     20828     20829     20828     20830     20829     20830
     20831     20832     20831     20833     20832     20833     20834     20835
     20834     20836     20835     20836     20837     20838     20837     20839
     20838     20839     20840     20841     20840     20842     20841     20842
     20843     20844     20843     20845     20844     20845     20846     20847
     20846     20848     20847     20848     20849     20850     20849     20851
     20850     20851     20852     20853     20852     20854     20853     20854
     20855     20856     20855     20857     20856     20857     20858     20859
     20858     20860     20859     20860     20861     20862     20861     20863
     20862     20863     20864     20865     20864     20866     20865     20866
     20867     20868     20867     20869     20868     20869     20870     20871
     20870     20872     20871     20872     20873     20874     20873     20875
     20874     20875     20876     20877     20876     20878     20877     20878
     20879     20880     20879     20881     20880     20881     20882     20883
     20882     20884     20883     20884     20885     20886     20885     20887
     20886     20887     20888     20889     20888     20890     20889     20890
     20891     20892     20891     20893     20892     20893     20894     20895
     20894     20896     20895     20896     20897     20898     20897     20899
     20898     20899     20900     20901     20900     20902     20901     20902
     20903     20904     20903     20905     20904     20905     20906     20907
     20906     20908     20907     20908     20909     20910     20909     20911
     20910     20911     20912     20913     20912     20914     20913     20914
     20915     20916     20915     20917     20916     20917     20918     20919
     20918     20920     20919     20920     20921     20922     20921     20923
     20922     20923     20924     20925     20924     20926     20925     20926
     20927     20928     20927     20929     20928     20929     20930     20931
     20930     20932     20931     20932     20933     20934     20933     20935
     20934     20935     20936     20937     20936     20938     20937     20938
     20939     20940     20939     20941     20940     20941     20942     20943
     20942     20944     20943     20944     20945     20946     20945     20947
     20946     20947     20948     20949     20948     20950     20949     20950
     20951     20952     20951     20953     20952     20953     20954     20955
     20954     20956     20955     20956     20957     20958     20957     20959
     20958     20959     20960     20961     20960     20962     20961     20962
     20963     20964     20963     20965     20964     20965     20966     20967
     20966     20968     20967     20968     20969     20970     20969     20971
     20970     20971     20972     20973     20972     20974     20973     20974
     20975     20976     20975     20977     20976     20977     20978     20979
     20978     20980     20979     20980     20981     20982     20981     20983
     20982     20983     20984     20985     20984     20986     20985     20986
     20987     20988     20987     20989     20988     20989     20990     20991
     20990     20992     20991     20992     20993     20994     20993     20995
     20994     20995     20996     20997     20996     20998     20997     20998
     20999     21000     20999     21001     21000     21001     21002     21003
     21002     21004     21003     21004     21005     21006     21005     21007
     21006     21007     21008     21009     21008     21010     21009     21010
     21011     21012     21011     21013     21012     21013     21014     21015
     21014     21016     21015     21016     21017     21018     21017     21019
     21018     21019     21020     21021     21020     21022     21021     21022
     21023     21024     21023     21025     21024     21025     21026     21027
     21026     21028     21027     21028     21029     21030     21029     21031
     21030     21031     21032     21033     21032     21034     21033     21034
     21035     21036     21035     21037     21036     21037     21038     21039
     21038     21040     21039     21040     21041     21042     21041     21043
     21042     21043     21044     21045     21044     21046     21045     21046
     21047     21048     21047     21049     21048     21049     21050     21051
     21050     21052     21051     21052     21053     21054     21053     21055
     21054     21055     21056     21057     21056     21058     21057     21058
     21059     21060     21059     21061     21060     21061     21062     21063
     21062     21064     21063     21064     21065     21066     21065     21067
     21066     21067     21068     21069     21068     21070     21069     21070
     21071     21072     21071     21073     21072     21073     21074     21075
     21074     21076     21075     21076     21077     21078     21077     21079
     21078     21079     21080     21081     21080     21082     21081     21082
     21083     21084     21083     21085     21084     21085     21086     21087
     21086     21088     21087     21088     21089     21090     21089     21091
     21090     21091     21092     21093     21092     21094     21093     21094
     21095     21096     21095     21097     21096     21097     21098     21099
     21098     21100     21099     21100     21101     21102     21101     21103
     21102     21103     21104     21105     21104     21106     21105     21106
     21107     21108     21107     21109     21108     21109     21110     21111
     21110     21112     21111     21112     21113     21114     21113     21115
     21114     21115     21116     21117     21116     21118     21117     21118
     21119     21120     21119     21121     21120     21121     21122     21123
     21122     21124     21123     21124     21125     21126     21125     21127
     21126     21127     21128     21129     21128     21130     21129     21130
     21131     21132     21131     21133     21132     21133     21134     21135
     21134     21136     21135     21136     21137     21138     21137     21139
     21138     21139     21140     21141     21140     21142     21141     21142
     21143     21144     21143     21145     21144     21145     21146     21147
     21146     21148     21147     21148     21149     21150     21149     21151
     21150     21151     21152     21153     21152     21154     21153     21154
     21155     21156     21155     21157     21156     21157     21158     21159
     21158     21160     21159     21160     21161     21162     21161     21163
     21162     21163     21164     21165     21164     21166     21165     21166
     21167     21168     21167     21169     21168     21169     21170     21171
     21170     21172     21171     21172     21173     21174     21173     21175
     21174     21175     21176     21177     21176     21178     21177     21178
     21179     21180     21179     21181     21180     21181     21182     21183
     21182     21184     21183     21184     21185     21186     21185     21187
     21186     21187     21188     21189     21188     21190     21189     21190
     21191     21192     21191     21193     21192     21193     21194     21195
     21194     21196     21195     21196     21197     21198     21197     21199
     21198     21199     21200     21201     21200     21202     21201     21202
     21203     21204     21203     21205     21204     21205     21206     21207
     21206     21208     21207     21208     21209     21210     21209     21211
     21210     21211     21212     21213     21212     21214     21213     21214
     21215     21216     21215     21217     21216     21217     21218     21219
     21218     21220     21219     21220     21221     21222     21221     21223
     21222     21223     21224     21225     21224     21226     21225     21226
     21227     21228     21227     21229     21228     21229     21230     21231
     21230     21232     21231     21232     21233     21234     21233     21235
     21234     21235     21236     21237     21236     21238     21237     21238
     21239     21240     21239     21241     21240     21241     21242     21243
     21242     21244     21243     21244     21245     21246     21245     21247
     21246     21247     21248     21249     21248     21250     21249     21250
     21251     21252     21251     21253     21252     21253     21254     21255
     21254     21256     21255     21256     21257     21258     21257     21259
     21258     21259     21260     21261     21260     21262     21261     21262
     21263     21264     21263     21265     21264     21265     21266     21267
     21266     21268     21267     21268     21269     21270     21269     21271
     21270     21271     21272     21273     21272     21274     21273     21274
     21275     21276     21275     21277     21276     21277     21278     21279
     21278     21280     21279     21280     21281     21282     21281     21283
     21282     21283     21284     21285     21284     21286     21285     21286
     21287     21288     21287     21289     21288     21289     21290     21291
     21290     21292     21291     21292     21293     21294     21293     21295
     21294     21295     21296     21297     21296     21298     21297     21298
     21299     21300     21299     21301     21300     21301     21302     21303
     21302     21304     21303     21304     21305     21306     21305     21307
     21306     21307     21308     21309     21308     21310     21309     21310
     21311     21312     21311     21313     21312     21313     21314     21315
     21314     21316     21315     21316     21317     21318     21317     21319
     21318     21319     21320     21321     21320     21322     21321     21322
     21323     21324     21323     21325     21324     21325     21326     21327
     21326     21328     21327     21328     21329     21330     21329     21331
     21330     21331     21332     21333     21332     21334     21333     21334
     21335     21336     21335     21337     21336     21337     21338     21339
     21338     21340     21339     21340     21341     21342     21341     21343
     21342     21343     21344     21345     21344     21346     21345     21346
     21347     21348     21347     21349     21348     21349     21350     21351
     21350     21352     21351     21352     21353     21354     21353     21355
     21354     21355     21356     21357     21356     21358     21357     21358
     21359     21360     21359     21361     21360     21361     21362     21363
     21362     21364     21363     21364     21365     21366     21365     21367
     21366     21367     21368     21369     21368     21370     21369     21370
     21371     21372     21371     21373     21372     21373     21374     21375
     21374     21376     21375     21376     21377     21378     21377     21379
     21378     21379     21380     21381     21380     21382     21381     21382
     21383     21384     21383     21385     21384     21385     21386     21387
     21386     21388     21387     21388     21389     21390     21389     21391
     21390     21391     21392     21393     21392     21394     21393     21394
     21395     21396     21395     21397     21396     21397     21398     21399
     21398     21400     21399     21400     21401     21402     21401     21403
     21402     21403     21404     21405     21404     21406     21405     21406
     21407     21408     21407     21409     21408     21409     21410     21411
     21410     21412     21411     21412     21413     21414     21413     21415
     21414     21415     21416     21417     21416     21418     21417     21418
     21419     21420     21419     21421     21420     21421     21422     21423
     21422     21424     21423     21424     21425     21426     21425     21427
     21426     21427     21428     21429     21428     21430     21429     21430
     21431     21432     21431     21433     21432     21433     21434     21435
     21434     21436     21435     21436     21437     21438     21437     21439
     21438     21439     21440     21441     21440     21442     21441     21442
     21443     21444     21443     21445     21444     21445     21446     21447
     21446     21448     21447     21448     21449     21450     21449     21451
     21450     21451     21452     21453     21452     21454     21453     21454
     21455     21456     21455     21457     21456     21457     21458     21459
     21458     21460     21459     21460     21461     21462     21461     21463
     21462     21463     21464     21465     21464     21466     21465     21466
     21467     21468     21467     21469     21468     21469     21470     21471
     21470     21472     21471     21472     21473     21474     21473     21475
     21474     21475     21476     21477     21476     21478     21477     21478
     21479     21480     21479     21481     21480     21481     21482     21483
     21482     21484     21483     21484     21485     21486     21485     21487
     21486     21487     21488     21489     21488     21490     21489     21490
     21491     21492     21491     21493     21492     21493     21494     21495
     21494     21496     21495     21496     21497     21498     21497     21499
     21498     21499     21500     21501     21500     21502     21501     21502
     21503     21504     21503     21505     21504     21505     21506     21507
     21506     21508     21507     21508     21509     21510     21509     21511
     21510     21511     21512     21513     21512     21514     21513     21514
     21515     21516     21515     21517     21516     21517     21518     21519
     21518     21520     21519     21520     21521     21522     21521     21523
     21522     21523     21524     21525     21524     21526     21525     21526
     21527     21528     21527     21529     21528     21529     21530     21531
     21530     21532     21531     21532     21533     21534     21533     21535
     21534     21535     21536     21537     21536     21538     21537     21538
     21539     21540     21539     21541     21540     21541     21542     21543
     21542     21544     21543     21544     21545     21546     21545     21547
     21546     21547     21548     21549     21548     21550     21549     21550
     21551     21552     21551     21553     21552     21553     21554     21555
     21554     21556     21555     21556     21557     21558     21557     21559
     21558     21559     21560     21561     21560     21562     21561     21562
     21563     21564     21563     21565     21564     21565     21566     21567
     21566     21568     21567     21568     21569     21570     21569     21571
     21570     21571     21572     21573     21572     21574     21573     21574
     21575     21576     21575     21577     21576     21577     21578     21579
     21578     21580     21579     21580     21581     21582     21581     21583
     21582     21583     21584     21585     21584     21586     21585     21586
     21587     21588     21587     21589     21588     21589     21590     21591
     21590     21592     21591     21592     21593     21594     21593     21595
     21594     21595     21596     21597     21596     21598     21597     21598
     21599     21600     21599     21601     21600     21601     21602     21603
     21602     21604     21603     21604     21605     21606     21605     21607
     21606     21607     21608     21609     21608     21610     21609     21610
     21611     21612     21611     21613     21612     21613     21614     21615
     21614     21616     21615     21616     21617     21618     21617     21619
     21618     21619     21620     21621     21620     21622     21621     21622
     21623     21624     21623     21625     21624     21625     21626     21627
     21626     21628     21627     21628     21629     21630     21629     21631
     21630     21631     21632     21633     21632     21634     21633     21634
     21635     21636     21635     21637     21636     21637     21638     21639
     21638     21640     21639     21640     21641     21642     21641     21643
     21642     21643     21644     21645     21644     21646     21645     21646
     21647     21648     21647     21649     21648     21649     21650     21651
     21650     21652     21651     21652     21653     21654     21653     21655
     21654     21655     21656     21657     21656     21658     21657     21658
     21659     21660     21659     21661     21660     21661     21662     21663
     21662     21664     21663     21664     21665     21666     21665     21667
     21666     21667     21668     21669     21668     21670     21669     21670
     21671     21672     21671     21673     21672     21673     21674     21675
     21674     21676     21675     21676     21677     21678     21677     21679
     21678     21679     21680     21681     21680     21682     21681     21682
     21683     21684     21683     21685     21684     21685     21686     21687
     21686     21688     21687     21688     21689     21690     21689     21691
     21690     21691     21692     21693     21692     21694     21693     21694
     21695     21696     21695     21697     21696     21697     21698     21699
     21698     21700     21699     21700     21701     21702     21701     21703
     21702     21703     21704     21705     21704     21706     21705     21706
     21707     21708     21707     21709     21708     21709     21710     21711
     21710     21712     21711     21712     21713     21714     21713     21715
     21714     21715     21716     21717     21716     21718     21717     21718
     21719     21720     21719     21721     21720     21721     21722     21723
     21722     21724     21723     21724     21725     21726     21725     21727
     21726     21727     21728     21729     21728     21730     21729     21730
     21731     21732     21731     21733     21732     21733     21734     21735
     21734     21736     21735     21736     21737     21738     21737     21739
     21738     21739     21740     21741     21740     21742     21741     21742
     21743     21744     21743     21745     21744     21745     21746     21747
     21746     21748     21747     21748     21749     21750     21749     21751
     21750     21751     21752     21753     21752     21754     21753     21754
     21755     21756     21755     21757     21756     21757     21758     21759
     21758     21760     21759     21760     21761     21762     21761     21763
     21762     21763     21764     21765     21764     21766     21765     21766
     21767     21768     21767     21769     21768     21769     21770     21771
     21770     21772     21771     21772     21773     21774     21773     21775
     21774     21775     21776     21777     21776     21778     21777     21778
     21779     21780     21779     21781     21780     21781     21782     21783
     21782     21784     21783     21784     21785     21786     21785     21787
     21786     21787     21788     21789     21788     21790     21789     21790
     21791     21792     21791     21793     21792     21793     21794     21795
     21794     21796     21795     21796     21797     21798     21797     21799
     21798     21799     21800     21801     21800     21802     21801     21802
     21803     21804     21803     21805     21804     21805     21806     21807
     21806     21808     21807     21808     21809     21810     21809     21811
     21810     21811     21812     21813     21812     21814     21813     21814
     21815     21816     21815     21817     21816     21817     21818     21819
     21818     21820     21819     21820     21821     21822     21821     21823
     21822     21823     21824     21825     21824     21826     21825     21826
     21827     21828     21827     21829     21828     21829     21830     21831
     21830     21832     21831     21832     21833     21834     21833     21835
     21834     21835     21836     21837     21836     21838     21837     21838
     21839     21840     21839     21841     21840     21841     21842     21843
     21842     21844     21843     21844     21845     21846     21845     21847
     21846     21847     21848     21849     21848     21850     21849     21850
     21851     21852     21851     21853     21852     21853     21854     21855
     21854     21856     21855     21856     21857     21858     21857     21859
     21858     21859     21860     21861     21860     21862     21861     21862
     21863     21864     21863     21865     21864     21865     21866     21867
     21866     21868     21867     21868     21869     21870     21869     21871
     21870     21871     21872     21873     21872     21874     21873     21874
     21875     21876     21875     21877     21876     21877     21878     21879
     21878     21880     21879     21880     21881     21882     21881     21883
     21882     21883     21884     21885     21884     21886     21885     21886
     21887     21888     21887     21889     21888     21889     21890     21891
     21890     21892     21891     21892     21893     21894     21893     21895
     21894     21895     21896     21897     21896     21898     21897     21898
     21899     21900     21899     21901     21900     21901     21902     21903
     21902     21904     21903     21904     21905     21906     21905     21907
     21906     21907     21908     21909     21908     21910     21909     21910
     21911     21912     21911     21913     21912     21913     21914     21915
     21914     21916     21915     21916     21917     21918     21917     21919
     21918     21919     21920     21921     21920     21922     21921     21922
     21923     21924     21923     21925     21924     21925     21926     21927
     21926     21928     21927     21928     21929     21930     21929     21931
     21930     21931     21932     21933     21932     21934     21933     21934
     21935     21936     21935     21937     21936     21937     21938     21939
     21938     21940     21939     21940     21941     21942     21941     21943
     21942     21943     21944     21945     21944     21946     21945     21946
     21947     21948     21947     21949     21948     21949     21950     21951
     21950     21952     21951     21952     21953     21954     21953     21955
     21954     21955     21956     21957     21956     21958     21957     21958
     21959     21960     21959     21961     21960     21961     21962     21963
     21962     21964     21963     21964     21965     21966     21965     21967
     21966     21967     21968     21969     21968     21970     21969     21970
     21971     21972     21971     21973     21972     21973     21974     21975
     21974     21976     21975     21976     21977     21978     21977     21979
     21978     21979     21980     21981     21980     21982     21981     21982
     21983     21984     21983     21985     21984     21985     21986     21987
     21986     21988     21987     21988     21989     21990     21989     21991
     21990     21991     21992     21993     21992     21994     21993     21994
     21995     21996     21995     21997     21996     21997     21998     21999
     21998     22000     21999     22000     22001     22002     22001     22003
     22002     22003     22004     22005     22004     22006     22005     22006
     22007     22008     22007     22009     22008     22009     22010     22011
     22010     22012     22011     22012     22013     22014     22013     22015
     22014     22015     22016     22017     22016     22018     22017     22018
     22019     22020     22019     22021     22020     22021     22022     22023
     22022     22024     22023     22024     22025     22026     22025     22027
     22026     22027     22028     22029     22028     22030     22029     22030
     22031     22032     22031     22033     22032     22033     22034     22035
     22034     22036     22035     22036     22037     22038     22037     22039
     22038     22039     22040     22041     22040     22042     22041     22042
     22043     22044     22043     22045     22044     22045     22046     22047
     22046     22048     22047     22048     22049     22050     22049     22051
     22050     22051     22052     22053     22052     22054     22053     22054
     22055     22056     22055     22057     22056     22057     22058     22059
     22058     22060     22059     22060     22061     22062     22061     22063
     22062     22063     22064     22065     22064     22066     22065     22066
     22067     22068     22067     22069     22068     22069     22070     22071
     22070     22072     22071     22072     22073     22074     22073     22075
     22074     22075     22076     22077     22076     22078     22077     22078
     22079     22080     22079     22081     22080     22081     22082     22083
     22082     22084     22083     22084     22085     22086     22085     22087
     22086     22087     22088     22089     22088     22090     22089     22090
     22091     22092     22091     22093     22092     22093     22094     22095
     22094     22096     22095     22096     22097     22098     22097     22099
     22098     22099     22100     22101     22100     22102     22101     22102
     22103     22104     22103     22105     22104     22105     22106     22107
     22106     22108     22107     22108     22109     22110     22109     22111
     22110     22111     22112     22113     22112     22114     22113     22114
     22115     22116     22115     22117     22116     22117     22118     22119
     22118     22120     22119     22120     22121     22122     22121     22123
     22122     22123     22124     22125     22124     22126     22125     22126
     22127     22128     22127     22129     22128     22129     22130     22131
     22130     22132     22131     22132     22133     22134     22133     22135
     22134     22135     22136     22137     22136     22138     22137     22138
     22139     22140     22139     22141     22140     22141     22142     22143
     22142     22144     22143     22144     22145     22146     22145     22147
     22146     22147     22148     22149     22148     22150     22149     22150
     22151     22152     22151     22153     22152     22153     22154     22155
     22154     22156     22155     22156     22157     22158     22157     22159
     22158     22159     22160     22161     22160     22162     22161     22162
     22163     22164     22163     22165     22164     22165     22166     22167
     22166     22168     22167     22168     22169     22170     22169     22171
     22170     22171     22172     22173     22172     22174     22173     22174
     22175     22176     22175     22177     22176     22177     22178     22179
     22178     22180     22179     22180     22181     22182     22181     22183
     22182     22183     22184     22185     22184     22186     22185     22186
     22187     22188     22187     22189     22188     22189     22190     22191
     22190     22192     22191     22192     22193     22194     22193     22195
     22194     22195     22196     22197     22196     22198     22197     22198
     22199     22200     22199     22201     22200     22201     22202     22203
     22202     22204     22203     22204     22205     22206     22205     22207
     22206     22207     22208     22209     22208     22210     22209     22210
     22211     22212     22211     22213     22212     22213     22214     22215
     22214     22216     22215     22216     22217     22218     22217     22219
     22218     22219     22220     22221     22220     22222     22221     22222
     22223     22224     22223     22225     22224     22225     22226     22227
     22226     22228     22227     22228     22229     22230     22229     22231
     22230     22231     22232     22233     22232     22234     22233     22234
     22235     22236     22235     22237     22236     22237     22238     22239
     22238     22240     22239     22240     22241     22242     22241     22243
     22242     22243     22244     22245     22244     22246     22245     22246
     22247     22248     22247     22249     22248     22249     22250     22251
     22250     22252     22251     22252     22253     22254     22253     22255
     22254     22255     22256     22257     22256     22258     22257     22258
     22259     22260     22259     22261     22260     22261     22262     22263
     22262     22264     22263     22264     22265     22266     22265     22267
     22266     22267     22268     22269     22268     22270     22269     22270
     22271     22272     22271     22273     22272     22273     22274     22275
     22274     22276     22275     22276     22277     22278     22277     22279
     22278     22279     22280     22281     22280     22282     22281     22282
     22283     22284     22283     22285     22284     22285     22286     22287
     22286     22288     22287     22288     22289     22290     22289     22291
     22290     22291     22292     22293     22292     22294     22293     22294
     22295     22296     22295     22297     22296     22297     22298     22299
     22298     22300     22299     22300     22301     22302     22301     22303
     22302     22303     22304     22305     22304     22306     22305     22306
     22307     22308     22307     22309     22308     22309     22310     22311
     22310     22312     22311     22312     22313     22314     22313     22315
     22314     22315     22316     22317     22316     22318     22317     22318
     22319     22320     22319     22321     22320     22321     22322     22323
     22322     22324     22323     22324     22325     22326     22325     22327
     22326     22327     22328     22329     22328     22330     22329     22330
     22331     22332     22331     22333     22332     22333     22334     22335
     22334     22336     22335     22336     22337     22338     22337     22339
     22338     22339     22340     22341     22340     22342     22341     22342
     22343     22344     22343     22345     22344     22345     22346     22347
     22346     22348     22347     22348     22349     22350     22349     22351
     22350     22351     22352     22353     22352     22354     22353     22354
     22355     22356     22355     22357     22356     22357     22358     22359
     22358     22360     22359     22360     22361     22362     22361     22363
     22362     22363     22364     22365     22364     22366     22365     22366
     22367     22368     22367     22369     22368     22369     22370     22371
     22370     22372     22371     22372     22373     22374     22373     22375
     22374     22375     22376     22377     22376     22378     22377     22378
     22379     22380     22379     22381     22380     22381     22382     22383
     22382     22384     22383     22384     22385     22386     22385     22387
     22386     22387     22388     22389     22388     22390     22389     22390
     22391     22392     22391     22393     22392     22393     22394     22395
     22394     22396     22395     22396     22397     22398     22397     22399
     22398     22399     22400     22401     22400     22402     22401     22402
     22403     22404     22403     22405     22404     22405     22406     22407
     22406     22408     22407     22408     22409     22410     22409     22411
     22410     22411     22412     22413     22412     22414     22413     22414
     22415     22416     22415     22417     22416     22417     22418     22419
     22418     22420     22419     22420     22421     22422     22421     22423
     22422     22423     22424     22425     22424     22426     22425     22426
     22427     22428     22427     22429     22428     22429     22430     22431
     22430     22432     22431     22432     22433     22434     22433     22435
     22434     22435     22436     22437     22436     22438     22437     22438
     22439     22440     22439     22441     22440     22441     22442     22443
     22442     22444     22443     22444     22445     22446     22445     22447
     22446     22447     22448     22449     22448     22450     22449     22450
     22451     22452     22451     22453     22452     22453     22454     22455
     22454     22456     22455     22456     22457     22458     22457     22459
     22458     22459     22460     22461     22460     22462     22461     22462
     22463     22464     22463     22465     22464     22465     22466     22467
     22466     22468     22467     22468     22469     22470     22469     22471
     22470     22471     22472     22473     22472     22474     22473     22474
     22475     22476     22475     22477     22476     22477     22478     22479
     22478     22480     22479     22480     22481     22482     22481     22483
     22482     22483     22484     22485     22484     22486     22485     22486
     22487     22488     22487     22489     22488     22489     22490     22491
     22490     22492     22491     22492     22493     22494     22493     22495
     22494     22495     22496     22497     22496     22498     22497     22498
     22499     22500     22499     22501     22500     22501     22502     22503
     22502     22504     22503     22504     22505     22506     22505     22507
     22506     22507     22508     22509     22508     22510     22509     22510
     22511     22512     22511     22513     22512     22513     22514     22515
     22514     22516     22515     22516     22517     22518     22517     22519
     22518     22519     22520     22521     22520     22522     22521     22522
     22523     22524     22523     22525     22524     22525     22526     22527
     22526     22528     22527     22528     22529     22530     22529     22531
     22530     22531     22532     22533     22532     22534     22533     22534
     22535     22536     22535     22537     22536     22537     22538     22539
     22538     22540     22539     22540     22541     22542     22541     22543
     22542     22543     22544     22545     22544     22546     22545     22546
     22547     22548     22547     22549     22548     22549     22550     22551
     22550     22552     22551     22552     22553     22554     22553     22555
     22554     22555     22556     22557     22556     22558     22557     22558
     22559     22560     22559     22561     22560     22561     22562     22563
     22562     22564     22563     22564     22565     22566     22565     22567
     22566     22567     22568     22569     22568     22570     22569     22570
     22571     22572     22571     22573     22572     22573     22574     22575
     22574     22576     22575     22576     22577     22578     22577     22579
     22578     22579     22580     22581     22580     22582     22581     22582
     22583     22584     22583     22585     22584     22585     22586     22587
     22586     22588     22587     22588     22589     22590     22589     22591
     22590     22591     22592     22593     22592     22594     22593     22594
     22595     22596     22595     22597     22596     22597     22598     22599
     22598     22600     22599     22600     22601     22602     22601     22603
     22602     22603     22604     22605     22604     22606     22605     22606
     22607     22608     22607     22609     22608     22609     22610     22611
     22610     22612     22611     22612     22613     22614     22613     22615
     22614     22615     22616     22617     22616     22618     22617     22618
     22619     22620     22619     22621     22620     22621     22622     22623
     22622     22624     22623     22624     22625     22626     22625     22627
     22626     22627     22628     22629     22628     22630     22629     22630
     22631     22632     22631     22633     22632     22633     22634     22635
     22634     22636     22635     22636     22637     22638     22637     22639
     22638     22639     22640     22641     22640     22642     22641     22642
     22643     22644     22643     22645     22644     22645     22646     22647
     22646     22648     22647     22648     22649     22650     22649     22651
     22650     22651     22652     22653     22652     22654     22653     22654
     22655     22656     22655     22657     22656     22657     22658     22659
     22658     22660     22659     22660     22661     22662     22661     22663
     22662     22663     22664     22665     22664     22666     22665     22666
     22667     22668     22667     22669     22668     22669     22670     22671
     22670     22672     22671     22672     22673     22674     22673     22675
     22674     22675     22676     22677     22676     22678     22677     22678
     22679     22680     22679     22681     22680     22681     22682     22683
     22682     22684     22683     22684     22685     22686     22685     22687
     22686     22687     22688     22689     22688     22690     22689     22690
     22691     22692     22691     22693     22692     22693     22694     22695
     22694     22696     22695     22696     22697     22698     22697     22699
     22698     22699     22700     22701     22700     22702     22701     22702
     22703     22704     22703     22705     22704     22705     22706     22707
     22706     22708     22707     22708     22709     22710     22709     22711
     22710     22711     22712     22713     22712     22714     22713     22714
     22715     22716     22715     22717     22716     22717     22718     22719
     22718     22720     22719     22720     22721     22722     22721     22723
     22722     22723     22724     22725     22724     22726     22725     22726
     22727     22728     22727     22729     22728     22729     22730     22731
     22730     22732     22731     22732     22733     22734     22733     22735
     22734     22735     22736     22737     22736     22738     22737     22738
     22739     22740     22739     22741     22740     22741     22742     22743
     22742     22744     22743     22744     22745     22746     22745     22747
     22746     22747     22748     22749     22748     22750     22749     22750
     22751     22752     22751     22753     22752     22753     22754     22755
     22754     22756     22755     22756     22757     22758     22757     22759
     22758     22759     22760     22761     22760     22762     22761     22762
     22763     22764     22763     22765     22764     22765     22766     22767
     22766     22768     22767     22768     22769     22770     22769     22771
     22770     22771     22772     22773     22772     22774     22773     22774
     22775     22776     22775     22777     22776     22777     22778     22779
     22778     22780     22779     22780     22781     22782     22781     22783
     22782     22783     22784     22785     22784     22786     22785     22786
     22787     22788     22787     22789     22788     22789     22790     22791
     22790     22792     22791     22792     22793     22794     22793     22795
     22794     22795     22796     22797     22796     22798     22797     22798
     22799     22800     22799     22801     22800     22801     22802     22803
     22802     22804     22803     22804     22805     22806     22805     22807
     22806     22807     22808     22809     22808     22810     22809     22810
     22811     22812     22811     22813     22812     22813     22814     22815
     22814     22816     22815     22816     22817     22818     22817     22819
     22818     22819     22820     22821     22820     22822     22821     22822
     22823     22824     22823     22825     22824     22825     22826     22827
     22826     22828     22827     22828     22829     22830     22829     22831
     22830     22831     22832     22833     22832     22834     22833     22834
     22835     22836     22835     22837     22836     22837     22838     22839
     22838     22840     22839     22840     22841     22842     22841     22843
     22842     22843     22844     22845     22844     22846     22845     22846
     22847     22848     22847     22849     22848     22849     22850     22851
     22850     22852     22851     22852     22853     22854     22853     22855
     22854     22855     22856     22857     22856     22858     22857     22858
     22859     22860     22859     22861     22860     22861     22862     22863
     22862     22864     22863     22864     22865     22866     22865     22867
     22866     22867     22868     22869     22868     22870     22869     22870
     22871     22872     22871     22873     22872     22873     22874     22875
     22874     22876     22875     22876     22877     22878     22877     22879
     22878     22879     22880     22881     22880     22882     22881     22882
     22883     22884     22883     22885     22884     22885     22886     22887
     22886     22888     22887     22888     22889     22890     22889     22891
     22890     22891     22892     22893     22892     22894     22893     22894
     22895     22896     22895     22897     22896     22897     22898     22899
     22898     22900     22899     22900     22901     22902     22901     22903
     22902     22903     22904     22905     22904     22906     22905     22906
     22907     22908     22907     22909     22908     22909     22910     22911
     22910     22912     22911     22912     22913     22914     22913     22915
     22914     22915     22916     22917     22916     22918     22917     22918
     22919     22920     22919     22921     22920     22921     22922     22923
     22922     22924     22923     22924     22925     22926     22925     22927
     22926     22927     22928     22929     22928     22930     22929     22930
     22931     22932     22931     22933     22932     22933     22934     22935
     22934     22936     22935     22936     22937     22938     22937     22939
     22938     22939     22940     22941     22940     22942     22941     22942
     22943     22944     22943     22945     22944     22945     22946     22947
     22946     22948     22947     22948     22949     22950     22949     22951
     22950     22951     22952     22953     22952     22954     22953     22954
     22955     22956     22955     22957     22956     22957     22958     22959
     22958     22960     22959     22960     22961     22962     22961     22963
     22962     22963     22964     22965     22964     22966     22965     22966
     22967     22968     22967     22969     22968     22969     22970     22971
     22970     22972     22971     22972     22973     22974     22973     22975
     22974     22975     22976     22977     22976     22978     22977     22978
     22979     22980     22979     22981     22980     22981     22982     22983
     22982     22984     22983     22984     22985     22986     22985     22987
     22986     22987     22988     22989     22988     22990     22989     22990
     22991     22992     22991     22993     22992     22993     22994     22995
     22994     22996     22995     22996     22997     22998     22997     22999
     22998     22999     23000     23001     23000     23002     23001     23002
     23003     23004     23003     23005     23004     23005     23006     23007
     23006     23008     23007     23008     23009     23010     23009     23011
     23010     23011     23012     23013     23012     23014     23013     23014
     23015     23016     23015     23017     23016     23017     23018     23019
     23018     23020     23019     23020     23021     23022     23021     23023
     23022     23023     23024     23025     23024     23026     23025     23026
     23027     23028     23027     23029     23028     23029     23030     23031
     23030     23032     23031     23032     23033     23034     23033     23035
     23034     23035     23036     23037     23036     23038     23037     23038
     23039     23040     23039     23041     23040     23041     23042     23043
     23042     23044     23043     23044     23045     23046     23045     23047
     23046     23047     23048     23049     23048     23050     23049     23050
     23051     23052     23051     23053     23052     23053     23054     23055
     23054     23056     23055     23056     23057     23058     23057     23059
     23058     23059     23060     23061     23060     23062     23061     23062
     23063     23064     23063     23065     23064     23065     23066     23067
     23066     23068     23067     23068     23069     23070     23069     23071
     23070     23071     23072     23073     23072     23074     23073     23074
     23075     23076     23075     23077     23076     23077     23078     23079
     23078     23080     23079     23080     23081     23082     23081     23083
     23082     23083     23084     23085     23084     23086     23085     23086
     23087     23088     23087     23089     23088     23089     23090     23091
     23090     23092     23091     23092     23093     23094     23093     23095
     23094     23095     23096     23097     23096     23098     23097     23098
     23099     23100     23099     23101     23100     23101     23102     23103
     23102     23104     23103     23104     23105     23106     23105     23107
     23106     23107     23108     23109     23108     23110     23109     23110
     23111     23112     23111     23113     23112     23113     23114     23115
     23114     23116     23115     23116     23117     23118     23117     23119
     23118     23119     23120     23121     23120     23122     23121     23122
     23123     23124     23123     23125     23124     23125     23126     23127
     23126     23128     23127     23128     23129     23130     23129     23131
     23130     23131     23132     23133     23132     23134     23133     23134
     23135     23136     23135     23137     23136     23137     23138     23139
     23138     23140     23139     23140     23141     23142     23141     23143
     23142     23143     23144     23145     23144     23146     23145     23146
     23147     23148     23147     23149     23148     23149     23150     23151
     23150     23152     23151     23152     23153     23154     23153     23155
     23154     23155     23156     23157     23156     23158     23157     23158
     23159     23160     23159     23161     23160     23161     23162     23163
     23162     23164     23163     23164     23165     23166     23165     23167
     23166     23167     23168     23169     23168     23170     23169     23170
     23171     23172     23171     23173     23172     23173     23174     23175
     23174     23176     23175     23176     23177     23178     23177     23179
     23178     23179     23180     23181     23180     23182     23181     23182
     23183     23184     23183     23185     23184     23185     23186     23187
     23186     23188     23187     23188     23189     23190     23189     23191
     23190     23191     23192     23193     23192     23194     23193     23194
     23195     23196     23195     23197     23196     23197     23198     23199
     23198     23200     23199     23200     23201     23202     23201     23203
     23202     23203     23204     23205     23204     23206     23205     23206
     23207     23208     23207     23209     23208     23209     23210     23211
     23210     23212     23211     23212     23213     23214     23213     23215
     23214     23215     23216     23217     23216     23218     23217     23218
     23219     23220     23219     23221     23220     23221     23222     23223
     23222     23224     23223     23224     23225     23226     23225     23227
     23226     23227     23228     23229     23228     23230     23229     23230
     23231     23232     23231     23233     23232     23233     23234     23235
     23234     23236     23235     23236     23237     23238     23237     23239
     23238     23239     23240     23241     23240     23242     23241     23242
     23243     23244     23243     23245     23244     23245     23246     23247
     23246     23248     23247     23248     23249     23250     23249     23251
     23250     23251     23252     23253     23252     23254     23253     23254
     23255     23256     23255     23257     23256     23257     23258     23259
     23258     23260     23259     23260     23261     23262     23261     23263
     23262     23263     23264     23265     23264     23266     23265     23266
     23267     23268     23267     23269     23268     23269     23270     23271
     23270     23272     23271     23272     23273     23274     23273     23275
     23274     23275     23276     23277     23276     23278     23277     23278
     23279     23280     23279     23281     23280     23281     23282     23283
     23282     23284     23283     23284     23285     23286     23285     23287
     23286     23287     23288     23289     23288     23290     23289     23290
     23291     23292     23291     23293     23292     23293     23294     23295
     23294     23296     23295     23296     23297     23298     23297     23299
     23298     23299     23300     23301     23300     23302     23301     23302
     23303     23304     23303     23305     23304     23305     23306     23307
     23306     23308     23307     23308     23309     23310     23309     23311
     23310     23311     23312     23313     23312     23314     23313     23314
     23315     23316     23315     23317     23316     23317     23318     23319
     23318     23320     23319     23320     23321     23322     23321     23323
     23322     23323     23324     23325     23324     23326     23325     23326
     23327     23328     23327     23329     23328     23329     23330     23331
     23330     23332     23331     23332     23333     23334     23333     23335
     23334     23335     23336     23337     23336     23338     23337     23338
     23339     23340     23339     23341     23340     23341     23342     23343
     23342     23344     23343     23344     23345     23346     23345     23347
     23346     23347     23348     23349     23348     23350     23349     23350
     23351     23352     23351     23353     23352     23353     23354     23355
     23354     23356     23355     23356     23357     23358     23357     23359
     23358     23359     23360     23361     23360     23362     23361     23362
     23363     23364     23363     23365     23364     23365     23366     23367
     23366     23368     23367     23368     23369     23370     23369     23371
     23370     23371     23372     23373     23372     23374     23373     23374
     23375     23376     23375     23377     23376     23377     23378     23379
     23378     23380     23379     23380     23381     23382     23381     23383
     23382     23383     23384     23385     23384     23386     23385     23386
     23387     23388     23387     23389     23388     23389     23390     23391
     23390     23392     23391     23392     23393     23394     23393     23395
     23394     23395     23396     23397     23396     23398     23397     23398
     23399     23400     23399     23401     23400     23401     23402     23403
     23402     23404     23403     23404     23405     23406     23405     23407
     23406     23407     23408     23409     23408     23410     23409     23410
     23411     23412     23411     23413     23412     23413     23414     23415
     23414     23416     23415     23416     23417     23418     23417     23419
     23418     23419     23420     23421     23420     23422     23421     23422
     23423     23424     23423     23425     23424     23425     23426     23427
     23426     23428     23427     23428     23429     23430     23429     23431
     23430     23431     23432     23433     23432     23434     23433     23434
     23435     23436     23435     23437     23436     23437     23438     23439
     23438     23440     23439     23440     23441     23442     23441     23443
     23442     23443     23444     23445     23444     23446     23445     23446
     23447     23448     23447     23449     23448     23449     23450     23451
     23450     23452     23451     23452     23453     23454     23453     23455
     23454     23455     23456     23457     23456     23458     23457     23458
     23459     23460     23459     23461     23460     23461     23462     23463
     23462     23464     23463     23464     23465     23466     23465     23467
     23466     23467     23468     23469     23468     23470     23469     23470
     23471     23472     23471     23473     23472     23473     23474     23475
     23474     23476     23475     23476     23477     23478     23477     23479
     23478     23479     23480     23481     23480     23482     23481     23482
     23483     23484     23483     23485     23484     23485     23486     23487
     23486     23488     23487     23488     23489     23490     23489     23491
     23490     23491     23492     23493     23492     23494     23493     23494
     23495     23496     23495     23497     23496     23497     23498     23499
     23498     23500     23499     23500     23501     23502     23501     23503
     23502     23503     23504     23505     23504     23506     23505     23506
     23507     23508     23507     23509     23508     23509     23510     23511
     23510     23512     23511     23512     23513     23514     23513     23515
     23514     23515     23516     23517     23516     23518     23517     23518
     23519     23520     23519     23521     23520     23521     23522     23523
     23522     23524     23523     23524     23525     23526     23525     23527
     23526     23527     23528     23529     23528     23530     23529     23530
     23531     23532     23531     23533     23532     23533     23534     23535
     23534     23536     23535     23536     23537     23538     23537     23539
     23538     23539     23540     23541     23540     23542     23541     23542
     23543     23544     23543     23545     23544     23545     23546     23547
     23546     23548     23547     23548     23549     23550     23549     23551
     23550     23551     23552     23553     23552     23554     23553     23554
     23555     23556     23555     23557     23556     23557     23558     23559
     23558     23560     23559     23560     23561     23562     23561     23563
     23562     23563     23564     23565     23564     23566     23565     23566
     23567     23568     23567     23569     23568     23569     23570     23571
     23570     23572     23571     23572     23573     23574     23573     23575
     23574     23575     23576     23577     23576     23578     23577     23578
     23579     23580     23579     23581     23580     23581     23582     23583
     23582     23584     23583     23584     23585     23586     23585     23587
     23586     23587     23588     23589     23588     23590     23589     23590
     23591     23592     23591     23593     23592     23593     23594     23595
     23594     23596     23595     23596     23597     23598     23597     23599
     23598     23599     23600     23601     23600     23602     23601     23602
     23603     23604     23603     23605     23604     23605     23606     23607
     23606     23608     23607     23608     23609     23610     23609     23611
     23610     23611     23612     23613     23612     23614     23613     23614
     23615     23616     23615     23617     23616     23617     23618     23619
     23618     23620     23619     23620     23621     23622     23621     23623
     23622     23623     23624     23625     23624     23626     23625     23626
     23627     23628     23627     23629     23628     23629     23630     23631
     23630     23632     23631     23632     23633     23634     23633     23635
     23634     23635     23636     23637     23636     23638     23637     23638
     23639     23640     23639     23641     23640     23641     23642     23643
     23642     23644     23643     23644     23645     23646     23645     23647
     23646     23647     23648     23649     23648     23650     23649     23650
     23651     23652     23651     23653     23652     23653     23654     23655
     23654     23656     23655     23656     23657     23658     23657     23659
     23658     23659     23660     23661     23660     23662     23661     23662
     23663     23664     23663     23665     23664     23665     23666     23667
     23666     23668     23667     23668     23669     23670     23669     23671
     23670     23671     23672     23673     23672     23674     23673     23674
     23675     23676     23675     23677     23676     23677     23678     23679
     23678     23680     23679     23680     23681     23682     23681     23683
     23682     23683     23684     23685     23684     23686     23685     23686
     23687     23688     23687     23689     23688     23689     23690     23691
     23690     23692     23691     23692     23693     23694     23693     23695
     23694     23695     23696     23697     23696     23698     23697     23698
     23699     23700     23699     23701     23700     23701     23702     23703
     23702     23704     23703     23704     23705     23706     23705     23707
     23706     23707     23708     23709     23708     23710     23709     23710
     23711     23712     23711     23713     23712     23713     23714     23715
     23714     23716     23715     23716     23717     23718     23717     23719
     23718     23719     23720     23721     23720     23722     23721     23722
     23723     23724     23723     23725     23724     23725     23726     23727
     23726     23728     23727     23728     23729     23730     23729     23731
     23730     23731     23732     23733     23732     23734     23733     23734
     23735     23736     23735     23737     23736     23737     23738     23739
     23738     23740     23739     23740     23741     23742     23741     23743
     23742     23743     23744     23745     23744     23746     23745     23746
     23747     23748     23747     23749     23748     23749     23750     23751
     23750     23752     23751     23752     23753     23754     23753     23755
     23754     23755     23756     23757     23756     23758     23757     23758
     23759     23760     23759     23761     23760     23761     23762     23763
     23762     23764     23763     23764     23765     23766     23765     23767
     23766     23767     23768     23769     23768     23770     23769     23770
     23771     23772     23771     23773     23772     23773     23774     23775
     23774     23776     23775     23776     23777     23778     23777     23779
     23778     23779     23780     23781     23780     23782     23781     23782
     23783     23784     23783     23785     23784     23785     23786     23787
     23786     23788     23787     23788     23789     23790     23789     23791
     23790     23791     23792     23793     23792     23794     23793     23794
     23795     23796     23795     23797     23796     23797     23798     23799
     23798     23800     23799     23800     23801     23802     23801     23803
     23802     23803     23804     23805     23804     23806     23805     23806
     23807     23808     23807     23809     23808     23809     23810     23811
     23810     23812     23811     23812     23813     23814     23813     23815
     23814     23815     23816     23817     23816     23818     23817     23818
     23819     23820     23819     23821     23820     23821     23822     23823
     23822     23824     23823     23824     23825     23826     23825     23827
     23826     23827     23828     23829     23828     23830     23829     23830
     23831     23832     23831     23833     23832     23833     23834     23835
     23834     23836     23835     23836     23837     23838     23837     23839
     23838     23839     23840     23841     23840     23842     23841     23842
     23843     23844     23843     23845     23844     23845     23846     23847
     23846     23848     23847     23848     23849     23850     23849     23851
     23850     23851     23852     23853     23852     23854     23853     23854
     23855     23856     23855     23857     23856     23857     23858     23859
     23858     23860     23859     23860     23861     23862     23861     23863
     23862     23863     23864     23865     23864     23866     23865     23866
     23867     23868     23867     23869     23868     23869     23870     23871
     23870     23872     23871     23872     23873     23874     23873     23875
     23874     23875     23876     23877     23876     23878     23877     23878
     23879     23880     23879     23881     23880     23881     23882     23883
     23882     23884     23883     23884     23885     23886     23885     23887
     23886     23887     23888     23889     23888     23890     23889     23890
     23891     23892     23891     23893     23892     23893     23894     23895
     23894     23896     23895     23896     23897     23898     23897     23899
     23898     23899     23900     23901     23900     23902     23901     23902
     23903     23904     23903     23905     23904     23905     23906     23907
     23906     23908     23907     23908     23909     23910     23909     23911
     23910     23911     23912     23913     23912     23914     23913     23914
     23915     23916     23915     23917     23916     23917     23918     23919
     23918     23920     23919     23920     23921     23922     23921     23923
     23922     23923     23924     23925     23924     23926     23925     23926
     23927     23928     23927     23929     23928     23929     23930     23931
     23930     23932     23931     23932     23933     23934     23933     23935
     23934     23935     23936     23937     23936     23938     23937     23938
     23939     23940     23939     23941     23940     23941     23942     23943
     23942     23944     23943     23944     23945     23946     23945     23947
     23946     23947     23948     23949     23948     23950     23949     23950
     23951     23952     23951     23953     23952     23953     23954     23955
     23954     23956     23955     23956     23957     23958     23957     23959
     23958     23959     23960     23961     23960     23962     23961     23962
     23963     23964     23963     23965     23964     23965     23966     23967
     23966     23968     23967     23968     23969     23970     23969     23971
     23970     23971     23972     23973     23972     23974     23973     23974
     23975     23976     23975     23977     23976     23977     23978     23979
     23978     23980     23979     23980     23981     23982     23981     23983
     23982     23983     23984     23985     23984     23986     23985     23986
     23987     23988     23987     23989     23988     23989     23990     23991
     23990     23992     23991     23992     23993     23994     23993     23995
     23994     23995     23996     23997     23996     23998     23997     23998
     23999     24000     23999     24001     24000     24001     24002     24003
     24002     24004     24003     24004     24005     24006     24005     24007
     24006     24007     24008     24009     24008     24010     24009     24010
     24011     24012     24011     24013     24012     24013     24014     24015
     24014     24016     24015     24016     24017     24018     24017     24019
     24018     24019     24020     24021     24020     24022     24021     24022
     24023     24024     24023     24025     24024     24025     24026     24027
     24026     24028     24027     24028     24029     24030     24029     24031
     24030     24031     24032     24033     24032     24034     24033     24034
     24035     24036     24035     24037     24036     24037     24038     24039
     24038     24040     24039     24040     24041     24042     24041     24043
     24042     24043     24044     24045     24044     24046     24045     24046
     24047     24048     24047     24049     24048     24049     24050     24051
     24050     24052     24051     24052     24053     24054     24053     24055
     24054     24055     24056     24057     24056     24058     24057     24058
     24059     24060     24059     24061     24060     24061     24062     24063
     24062     24064     24063     24064     24065     24066     24065     24067
     24066     24067     24068     24069     24068     24070     24069     24070
     24071     24072     24071     24073     24072     24073     24074     24075
     24074     24076     24075     24076     24077     24078     24077     24079
     24078     24079     24080     24081     24080     24082     24081     24082
     24083     24084     24083     24085     24084     24085     24086     24087
     24086     24088     24087     24088     24089     24090     24089     24091
     24090     24091     24092     24093     24092     24094     24093     24094
     24095     24096     24095     24097     24096     24097     24098     24099
     24098     24100     24099     24100     24101     24102     24101     24103
     24102     24103     24104     24105     24104     24106     24105     24106
     24107     24108     24107     24109     24108     24109     24110     24111
     24110     24112     24111     24112     24113     24114     24113     24115
     24114     24115     24116     24117     24116     24118     24117     24118
     24119     24120     24119     24121     24120     24121     24122     24123
     24122     24124     24123     24124     24125     24126     24125     24127
     24126     24127     24128     24129     24128     24130     24129     24130
     24131     24132     24131     24133     24132     24133     24134     24135
     24134     24136     24135     24136     24137     24138     24137     24139
     24138     24139     24140     24141     24140     24142     24141     24142
     24143     24144     24143     24145     24144     24145     24146     24147
     24146     24148     24147     24148     24149     24150     24149     24151
     24150     24151     24152     24153     24152     24154     24153     24154
     24155     24156     24155     24157     24156     24157     24158     24159
     24158     24160     24159     24160     24161     24162     24161     24163
     24162     24163     24164     24165     24164     24166     24165     24166
     24167     24168     24167     24169     24168     24169     24170     24171
     24170     24172     24171     24172     24173     24174     24173     24175
     24174     24175     24176     24177     24176     24178     24177     24178
     24179     24180     24179     24181     24180     24181     24182     24183
     24182     24184     24183     24184     24185     24186     24185     24187
     24186     24187     24188     24189     24188     24190     24189     24190
     24191     24192     24191     24193     24192     24193     24194     24195
     24194     24196     24195     24196     24197     24198     24197     24199
     24198     24199     24200     24201     24200     24202     24201     24202
     24203     24204     24203     24205     24204     24205     24206     24207
     24206     24208     24207     24208     24209     24210     24209     24211
     24210     24211     24212     24213     24212     24214     24213     24214
     24215     24216     24215     24217     24216     24217     24218     24219
     24218     24220     24219     24220     24221     24222     24221     24223
     24222     24223     24224     24225     24224     24226     24225     24226
     24227     24228     24227     24229     24228     24229     24230     24231
     24230     24232     24231     24232     24233     24234     24233     24235
     24234     24235     24236     24237     24236     24238     24237     24238
     24239     24240     24239     24241     24240     24241     24242     24243
     24242     24244     24243     24244     24245     24246     24245     24247
     24246     24247     24248     24249     24248     24250     24249     24250
     24251     24252     24251     24253     24252     24253     24254     24255
     24254     24256     24255     24256     24257     24258     24257     24259
     24258     24259     24260     24261     24260     24262     24261     24262
     24263     24264     24263     24265     24264     24265     24266     24267
     24266     24268     24267     24268     24269     24270     24269     24271
     24270     24271     24272     24273     24272     24274     24273     24274
     24275     24276     24275     24277     24276     24277     24278     24279
     24278     24280     24279     24280     24281     24282     24281     24283
     24282     24283     24284     24285     24284     24286     24285     24286
     24287     24288     24287     24289     24288     24289     24290     24291
     24290     24292     24291     24292     24293     24294     24293     24295
     24294     24295     24296     24297     24296     24298     24297     24298
     24299     24300     24299     24301     24300     24301     24302     24303
     24302     24304     24303     24304     24305     24306     24305     24307
     24306     24307     24308     24309     24308     24310     24309     24310
     24311     24312     24311     24313     24312     24313     24314     24315
     24314     24316     24315     24316     24317     24318     24317     24319
     24318     24319     24320     24321     24320     24322     24321     24322
     24323     24324     24323     24325     24324     24325     24326     24327
     24326     24328     24327     24328     24329     24330     24329     24331
     24330     24331     24332     24333     24332     24334     24333     24334
     24335     24336     24335     24337     24336     24337     24338     24339
     24338     24340     24339     24340     24341     24342     24341     24343
     24342     24343     24344     24345     24344     24346     24345     24346
     24347     24348     24347     24349     24348     24349     24350     24351
     24350     24352     24351     24352     24353     24354     24353     24355
     24354     24355     24356     24357     24356     24358     24357     24358
     24359     24360     24359     24361     24360     24361     24362     24363
     24362     24364     24363     24364     24365     24366     24365     24367
     24366     24367     24368     24369     24368     24370     24369     24370
     24371     24372     24371     24373     24372     24373     24374     24375
     24374     24376     24375     24376     24377     24378     24377     24379
     24378     24379     24380     24381     24380     24382     24381     24382
     24383     24384     24383     24385     24384     24385     24386     24387
     24386     24388     24387     24388     24389     24390     24389     24391
     24390     24391     24392     24393     24392     24394     24393     24394
     24395     24396     24395     24397     24396     24397     24398     24399
     24398     24400     24399     24400     24401     24402     24401     24403
     24402     24403     24404     24405     24404     24406     24405     24406
     24407     24408     24407     24409     24408     24409     24410     24411
     24410     24412     24411     24412     24413     24414     24413     24415
     24414     24415     24416     24417     24416     24418     24417     24418
     24419     24420     24419     24421     24420     24421     24422     24423
     24422     24424     24423     24424     24425     24426     24425     24427
     24426     24427     24428     24429     24428     24430     24429     24430
     24431     24432     24431     24433     24432     24433     24434     24435
     24434     24436     24435     24436     24437     24438     24437     24439
     24438     24439     24440     24441     24440     24442     24441     24442
     24443     24444     24443     24445     24444     24445     24446     24447
     24446     24448     24447     24448     24449     24450     24449     24451
     24450     24451     24452     24453     24452     24454     24453     24454
     24455     24456     24455     24457     24456     24457     24458     24459
     24458     24460     24459     24460     24461     24462     24461     24463
     24462     24463     24464     24465     24464     24466     24465     24466
     24467     24468     24467     24469     24468     24469     24470     24471
     24470     24472     24471     24472     24473     24474     24473     24475
     24474     24475     24476     24477     24476     24478     24477     24478
     24479     24480     24479     24481     24480     24481     24482     24483
     24482     24484     24483     24484     24485     24486     24485     24487
     24486     24487     24488     24489     24488     24490     24489     24490
     24491     24492     24491     24493     24492     24493     24494     24495
     24494     24496     24495     24496     24497     24498     24497     24499
     24498     24499     24500     24501     24500     24502     24501     24502
     24503     24504     24503     24505     24504     24505     24506     24507
     24506     24508     24507     24508     24509     24510     24509     24511
     24510     24511     24512     24513     24512     24514     24513     24514
     24515     24516     24515     24517     24516     24517     24518     24519
     24518     24520     24519     24520     24521     24522     24521     24523
     24522     24523     24524     24525     24524     24526     24525     24526
     24527     24528     24527     24529     24528     24529     24530     24531
     24530     24532     24531     24532     24533     24534     24533     24535
     24534     24535     24536     24537     24536     24538     24537     24538
     24539     24540     24539     24541     24540     24541     24542     24543
     24542     24544     24543     24544     24545     24546     24545     24547
     24546     24547     24548     24549     24548     24550     24549     24550
     24551     24552     24551     24553     24552     24553     24554     24555
     24554     24556     24555     24556     24557     24558     24557     24559
     24558     24559     24560     24561     24560     24562     24561     24562
     24563     24564     24563     24565     24564     24565     24566     24567
     24566     24568     24567     24568     24569     24570     24569     24571
     24570     24571     24572     24573     24572     24574     24573     24574
     24575     24576     24575     24577     24576     24577     24578     24579
     24578     24580     24579     24580     24581     24582     24581     24583
     24582     24583     24584     24585     24584     24586     24585     24586
     24587     24588     24587     24589     24588     24589     24590     24591
     24590     24592     24591     24592     24593     24594     24593     24595
     24594     24595     24596     24597     24596     24598     24597     24598
     24599     24600     24599     24601     24600     24601     24602     24603
     24602     24604     24603     24604     24605     24606     24605     24607
     24606     24607     24608     24609     24608     24610     24609     24610
     24611     24612     24611     24613     24612     24613     24614     24615
     24614     24616     24615     24616     24617     24618     24617     24619
     24618     24619     24620     24621     24620     24622     24621     24622
     24623     24624     24623     24625     24624     24625     24626     24627
     24626     24628     24627     24628     24629     24630     24629     24631
     24630     24631     24632     24633     24632     24634     24633     24634
     24635     24636     24635     24637     24636     24637     24638     24639
     24638     24640     24639     24640     24641     24642     24641     24643
     24642     24643     24644     24645     24644     24646     24645     24646
     24647     24648     24647     24649     24648     24649     24650     24651
     24650     24652     24651     24652     24653     24654     24653     24655
     24654     24655     24656     24657     24656     24658     24657     24658
     24659     24660     24659     24661     24660     24661     24662     24663
     24662     24664     24663     24664     24665     24666     24665     24667
     24666     24667     24668     24669     24668     24670     24669     24670
     24671     24672     24671     24673     24672     24673     24674     24675
     24674     24676     24675     24676     24677     24678     24677     24679
     24678     24679     24680     24681     24680     24682     24681     24682
     24683     24684     24683     24685     24684     24685     24686     24687
     24686     24688     24687     24688     24689     24690     24689     24691
     24690     24691     24692     24693     24692     24694     24693     24694
     24695     24696     24695     24697     24696     24697     24698     24699
     24698     24700     24699     24700     24701     24702     24701     24703
     24702     24703     24704     24705     24704     24706     24705     24706
     24707     24708     24707     24709     24708     24709     24710     24711
     24710     24712     24711     24712     24713     24714     24713     24715
     24714     24715     24716     24717     24716     24718     24717     24718
     24719     24720     24719     24721     24720     24721     24722     24723
     24722     24724     24723     24724     24725     24726     24725     24727
     24726     24727     24728     24729     24728     24730     24729     24730
     24731     24732     24731     24733     24732     24733     24734     24735
     24734     24736     24735     24736     24737     24738     24737     24739
     24738     24739     24740     24741     24740     24742     24741     24742
     24743     24744     24743     24745     24744     24745     24746     24747
     24746     24748     24747     24748     24749     24750     24749     24751
     24750     24751     24752     24753     24752     24754     24753     24754
     24755     24756     24755     24757     24756     24757     24758     24759
     24758     24760     24759     24760     24761     24762     24761     24763
     24762     24763     24764     24765     24764     24766     24765     24766
     24767     24768     24767     24769     24768     24769     24770     24771
     24770     24772     24771     24772     24773     24774     24773     24775
     24774     24775     24776     24777     24776     24778     24777     24778
     24779     24780     24779     24781     24780     24781     24782     24783
     24782     24784     24783     24784     24785     24786     24785     24787
     24786     24787     24788     24789     24788     24790     24789     24790
     24791     24792     24791     24793     24792     24793     24794     24795
     24794     24796     24795     24796     24797     24798     24797     24799
     24798     24799     24800     24801     24800     24802     24801     24802
     24803     24804     24803     24805     24804     24805     24806     24807
     24806     24808     24807     24808     24809     24810     24809     24811
     24810     24811     24812     24813     24812     24814     24813     24814
     24815     24816     24815     24817     24816     24817     24818     24819
     24818     24820     24819     24820     24821     24822     24821     24823
     24822     24823     24824     24825     24824     24826     24825     24826
     24827     24828     24827     24829     24828     24829     24830     24831
     24830     24832     24831     24832     24833     24834     24833     24835
     24834     24835     24836     24837     24836     24838     24837     24838
     24839     24840     24839     24841     24840     24841     24842     24843
     24842     24844     24843     24844     24845     24846     24845     24847
     24846     24847     24848     24849     24848     24850     24849     24850
     24851     24852     24851     24853     24852     24853     24854     24855
     24854     24856     24855     24856     24857     24858     24857     24859
     24858     24859     24860     24861     24860     24862     24861     24862
     24863     24864     24863     24865     24864     24865     24866     24867
     24866     24868     24867     24868     24869     24870     24869     24871
     24870     24871     24872     24873     24872     24874     24873     24874
     24875     24876     24875     24877     24876     24877     24878     24879
     24878     24880     24879     24880     24881     24882     24881     24883
     24882     24883     24884     24885     24884     24886     24885     24886
     24887     24888     24887     24889     24888     24889     24890     24891
     24890     24892     24891     24892     24893     24894     24893     24895
     24894     24895     24896     24897     24896     24898     24897     24898
     24899     24900     24899     24901     24900     24901     24902     24903
     24902     24904     24903     24904     24905     24906     24905     24907
     24906     24907     24908     24909     24908     24910     24909     24910
     24911     24912     24911     24913     24912     24913     24914     24915
     24914     24916     24915     24916     24917     24918     24917     24919
     24918     24919     24920     24921     24920     24922     24921     24922
     24923     24924     24923     24925     24924     24925     24926     24927
     24926     24928     24927     24928     24929     24930     24929     24931
     24930     24931     24932     24933     24932     24934     24933     24934
     24935     24936     24935     24937     24936     24937     24938     24939
     24938     24940     24939     24940     24941     24942     24941     24943
     24942     24943     24944     24945     24944     24946     24945     24946
     24947     24948     24947     24949     24948     24949     24950     24951
     24950     24952     24951     24952     24953     24954     24953     24955
     24954     24955     24956     24957     24956     24958     24957     24958
     24959     24960     24959     24961     24960     24961     24962     24963
     24962     24964     24963     24964     24965     24966     24965     24967
     24966     24967     24968     24969     24968     24970     24969     24970
     24971     24972     24971     24973     24972     24973     24974     24975
     24974     24976     24975     24976     24977     24978     24977     24979
     24978     24979     24980     24981     24980     24982     24981     24982
     24983     24984     24983     24985     24984     24985     24986     24987
     24986     24988     24987     24988     24989     24990     24989     24991
     24990     24991     24992     24993     24992     24994     24993     24994
     24995     24996     24995     24997     24996     24997     24998     24999
     24998     25000     24999     25000     25001     25002     25001     25003
     25002     25003     25004     25005     25004     25006     25005     25006
     25007     25008     25007     25009     25008     25009     25010     25011
     25010     25012     25011     25012     25013     25014     25013     25015
     25014     25015     25016     25017     25016     25018     25017     25018
     25019     25020     25019     25021     25020     25021     25022     25023
     25022     25024     25023     25024     25025     25026     25025     25027
     25026     25027     25028     25029     25028     25030     25029     25030
     25031     25032     25031     25033     25032     25033     25034     25035
     25034     25036     25035     25036     25037     25038     25037     25039
     25038     25039     25040     25041     25040     25042     25041     25042
     25043     25044     25043     25045     25044     25045     25046     25047
     25046     25048     25047     25048     25049     25050     25049     25051
     25050     25051     25052     25053     25052     25054     25053     25054
     25055     25056     25055     25057     25056     25057     25058     25059
     25058     25060     25059     25060     25061     25062     25061     25063
     25062     25063     25064     25065     25064     25066     25065     25066
     25067     25068     25067     25069     25068     25069     25070     25071
     25070     25072     25071     25072     25073     25074     25073     25075
     25074     25075     25076     25077     25076     25078     25077     25078
     25079     25080     25079     25081     25080     25081     25082     25083
     25082     25084     25083     25084     25085     25086     25085     25087
     25086     25087     25088     25089     25088     25090     25089     25090
     25091     25092     25091     25093     25092     25093     25094     25095
     25094     25096     25095     25096     25097     25098     25097     25099
     25098     25099     25100     25101     25100     25102     25101     25102
     25103     25104     25103     25105     25104     25105     25106     25107
     25106     25108     25107     25108     25109     25110     25109     25111
     25110     25111     25112     25113     25112     25114     25113     25114
     25115     25116     25115     25117     25116     25117     25118     25119
     25118     25120     25119     25120     25121     25122     25121     25123
     25122     25123     25124     25125     25124     25126     25125     25126
     25127     25128     25127     25129     25128     25129     25130     25131
     25130     25132     25131     25132     25133     25134     25133     25135
     25134     25135     25136     25137     25136     25138     25137     25138
     25139     25140     25139     25141     25140     25141     25142     25143
     25142     25144     25143     25144     25145     25146     25145     25147
     25146     25147     25148     25149     25148     25150     25149     25150
     25151     25152     25151     25153     25152     25153     25154     25155
     25154     25156     25155     25156     25157     25158     25157     25159
     25158     25159     25160     25161     25160     25162     25161     25162
     25163     25164     25163     25165     25164     25165     25166     25167
     25166     25168     25167     25168     25169     25170     25169     25171
     25170     25171     25172     25173     25172     25174     25173     25174
     25175     25176     25175     25177     25176     25177     25178     25179
     25178     25180     25179     25180     25181     25182     25181     25183
     25182     25183     25184     25185     25184     25186     25185     25186
     25187     25188     25187     25189     25188     25189     25190     25191
     25190     25192     25191     25192     25193     25194     25193     25195
     25194     25195     25196     25197     25196     25198     25197     25198
     25199     25200     25199     25201     25200     25201     25202     25203
     25202     25204     25203     25204     25205     25206     25205     25207
     25206     25207     25208     25209     25208     25210     25209     25210
     25211     25212     25211     25213     25212     25213     25214     25215
     25214     25216     25215     25216     25217     25218     25217     25219
     25218     25219     25220     25221     25220     25222     25221     25222
     25223     25224     25223     25225     25224     25225     25226     25227
     25226     25228     25227     25228     25229     25230     25229     25231
     25230     25231     25232     25233     25232     25234     25233     25234
     25235     25236     25235     25237     25236     25237     25238     25239
     25238     25240     25239     25240     25241     25242     25241     25243
     25242     25243     25244     25245     25244     25246     25245     25246
     25247     25248     25247     25249     25248     25249     25250     25251
     25250     25252     25251     25252     25253     25254     25253     25255
     25254     25255     25256     25257     25256     25258     25257     25258
     25259     25260     25259     25261     25260     25261     25262     25263
     25262     25264     25263     25264     25265     25266     25265     25267
     25266     25267     25268     25269     25268     25270     25269     25270
     25271     25272     25271     25273     25272     25273     25274     25275
     25274     25276     25275     25276     25277     25278     25277     25279
     25278     25279     25280     25281     25280     25282     25281     25282
     25283     25284     25283     25285     25284     25285     25286     25287
     25286     25288     25287     25288     25289     25290     25289     25291
     25290     25291     25292     25293     25292     25294     25293     25294
     25295     25296     25295     25297     25296     25297     25298     25299
     25298     25300     25299     25300     25301     25302     25301     25303
     25302     25303     25304     25305     25304     25306     25305     25306
     25307     25308     25307     25309     25308     25309     25310     25311
     25310     25312     25311     25312     25313     25314     25313     25315
     25314     25315     25316     25317     25316     25318     25317     25318
     25319     25320     25319     25321     25320     25321     25322     25323
     25322     25324     25323     25324     25325     25326     25325     25327
     25326     25327     25328     25329     25328     25330     25329     25330
     25331     25332     25331     25333     25332     25333     25334     25335
     25334     25336     25335     25336     25337     25338     25337     25339
     25338     25339     25340     25341     25340     25342     25341     25342
     25343     25344     25343     25345     25344     25345     25346     25347
     25346     25348     25347     25348     25349     25350     25349     25351
     25350     25351     25352     25353     25352     25354     25353     25354
     25355     25356     25355     25357     25356     25357     25358     25359
     25358     25360     25359     25360     25361     25362     25361     25363
     25362     25363     25364     25365     25364     25366     25365     25366
     25367     25368     25367     25369     25368     25369     25370     25371
     25370     25372     25371     25372     25373     25374     25373     25375
     25374     25375     25376     25377     25376     25378     25377     25378
     25379     25380     25379     25381     25380     25381     25382     25383
     25382     25384     25383     25384     25385     25386     25385     25387
     25386     25387     25388     25389     25388     25390     25389     25390
     25391     25392     25391     25393     25392     25393     25394     25395
     25394     25396     25395     25396     25397     25398     25397     25399
     25398     25399     25400     25401     25400     25402     25401     25402
     25403     25404     25403     25405     25404     25405     25406     25407
     25406     25408     25407     25408     25409     25410     25409     25411
     25410     25411     25412     25413     25412     25414     25413     25414
     25415     25416     25415     25417     25416     25417     25418     25419
     25418     25420     25419     25420     25421     25422     25421     25423
     25422     25423     25424     25425     25424     25426     25425     25426
     25427     25428     25427     25429     25428     25429     25430     25431
     25430     25432     25431     25432     25433     25434     25433     25435
     25434     25435     25436     25437     25436     25438     25437     25438
     25439     25440     25439     25441     25440     25441     25442     25443
     25442     25444     25443     25444     25445     25446     25445     25447
     25446     25447     25448     25449     25448     25450     25449     25450
     25451     25452     25451     25453     25452     25453     25454     25455
     25454     25456     25455     25456     25457     25458     25457     25459
     25458     25459     25460     25461     25460     25462     25461     25462
     25463     25464     25463     25465     25464     25465     25466     25467
     25466     25468     25467     25468     25469     25470     25469     25471
     25470     25471     25472     25473     25472     25474     25473     25474
     25475     25476     25475     25477     25476     25477     25478     25479
     25478     25480     25479     25480     25481     25482     25481     25483
     25482     25483     25484     25485     25484     25486     25485     25486
     25487     25488     25487     25489     25488     25489     25490     25491
     25490     25492     25491     25492     25493     25494     25493     25495
     25494     25495     25496     25497     25496     25498     25497     25498
     25499     25500     25499     25501     25500     25501     25502     25503
     25502     25504     25503     25504     25505     25506     25505     25507
     25506     25507     25508     25509     25508     25510     25509     25510
     25511     25512     25511     25513     25512     25513     25514     25515
     25514     25516     25515     25516     25517     25518     25517     25519
     25518     25519     25520     25521     25520     25522     25521     25522
     25523     25524     25523     25525     25524     25525     25526     25527
     25526     25528     25527     25528     25529     25530     25529     25531
     25530     25531     25532     25533     25532     25534     25533     25534
     25535     25536     25535     25537     25536     25537     25538     25539
     25538     25540     25539     25540     25541     25542     25541     25543
     25542     25543     25544     25545     25544     25546     25545     25546
     25547     25548     25547     25549     25548     25549     25550     25551
     25550     25552     25551     25552     25553     25554     25553     25555
     25554     25555     25556     25557     25556     25558     25557     25558
     25559     25560     25559     25561     25560     25561     25562     25563
     25562     25564     25563     25564     25565     25566     25565     25567
     25566     25567     25568     25569     25568     25570     25569     25570
     25571     25572     25571     25573     25572     25573     25574     25575
     25574     25576     25575     25576     25577     25578     25577     25579
     25578     25579     25580     25581     25580     25582     25581     25582
     25583     25584     25583     25585     25584     25585     25586     25587
     25586     25588     25587     25588     25589     25590     25589     25591
     25590     25591     25592     25593     25592     25594     25593     25594
     25595     25596     25595     25597     25596     25597     25598     25599
     25598     25600     25599     25600     25601     25602     25601     25603
     25602     25603     25604     25605     25604     25606     25605     25606
     25607     25608     25607     25609     25608     25609     25610     25611
     25610     25612     25611     25612     25613     25614     25613     25615
     25614     25615     25616     25617     25616     25618     25617     25618
     25619     25620     25619     25621     25620     25621     25622     25623
     25622     25624     25623     25624     25625     25626     25625     25627
     25626     25627     25628     25629     25628     25630     25629     25630
     25631     25632     25631     25633     25632     25633     25634     25635
     25634     25636     25635     25636     25637     25638     25637     25639
     25638     25639     25640     25641     25640     25642     25641     25642
     25643     25644     25643     25645     25644     25645     25646     25647
     25646     25648     25647     25648     25649     25650     25649     25651
     25650     25651     25652     25653     25652     25654     25653     25654
     25655     25656     25655     25657     25656     25657     25658     25659
     25658     25660     25659     25660     25661     25662     25661     25663
     25662     25663     25664     25665     25664     25666     25665     25666
     25667     25668     25667     25669     25668     25669     25670     25671
     25670     25672     25671     25672     25673     25674     25673     25675
     25674     25675     25676     25677     25676     25678     25677     25678
     25679     25680     25679     25681     25680     25681     25682     25683
     25682     25684     25683     25684     25685     25686     25685     25687
     25686     25687     25688     25689     25688     25690     25689     25690
     25691     25692     25691     25693     25692     25693     25694     25695
     25694     25696     25695     25696     25697     25698     25697     25699
     25698     25699     25700     25701     25700     25702     25701     25702
     25703     25704     25703     25705     25704     25705     25706     25707
     25706     25708     25707     25708     25709     25710     25709     25711
     25710     25711     25712     25713     25712     25714     25713     25714
     25715     25716     25715     25717     25716     25717     25718     25719
     25718     25720     25719     25720     25721     25722     25721     25723
     25722     25723     25724     25725     25724     25726     25725     25726
     25727     25728     25727     25729     25728     25729     25730     25731
     25730     25732     25731     25732     25733     25734     25733     25735
     25734     25735     25736     25737     25736     25738     25737     25738
     25739     25740     25739     25741     25740     25741     25742     25743
     25742     25744     25743     25744     25745     25746     25745     25747
     25746     25747     25748     25749     25748     25750     25749     25750
     25751     25752     25751     25753     25752     25753     25754     25755
     25754     25756     25755     25756     25757     25758     25757     25759
     25758     25759     25760     25761     25760     25762     25761     25762
     25763     25764     25763     25765     25764     25765     25766     25767
     25766     25768     25767     25768     25769     25770     25769     25771
     25770     25771     25772     25773     25772     25774     25773     25774
     25775     25776     25775     25777     25776     25777     25778     25779
     25778     25780     25779     25780     25781     25782     25781     25783
     25782     25783     25784     25785     25784     25786     25785     25786
     25787     25788     25787     25789     25788     25789     25790     25791
     25790     25792     25791     25792     25793     25794     25793     25795
     25794     25795     25796     25797     25796     25798     25797     25798
     25799     25800     25799     25801     25800     25801     25802     25803
     25802     25804     25803     25804     25805     25806     25805     25807
     25806     25807     25808     25809     25808     25810     25809     25810
     25811     25812     25811     25813     25812     25813     25814     25815
     25814     25816     25815     25816     25817     25818     25817     25819
     25818     25819     25820     25821     25820     25822     25821     25822
     25823     25824     25823     25825     25824     25825     25826     25827
     25826     25828     25827     25828     25829     25830     25829     25831
     25830     25831     25832     25833     25832     25834     25833     25834
     25835     25836     25835     25837     25836     25837     25838     25839
     25838     25840     25839     25840     25841     25842     25841     25843
     25842     25843     25844     25845     25844     25846     25845     25846
     25847     25848     25847     25849     25848     25849     25850     25851
     25850     25852     25851     25852     25853     25854     25853     25855
     25854     25855     25856     25857     25856     25858     25857     25858
     25859     25860     25859     25861     25860     25861     25862     25863
     25862     25864     25863     25864     25865     25866     25865     25867
     25866     25867     25868     25869     25868     25870     25869     25870
     25871     25872     25871     25873     25872     25873     25874     25875
     25874     25876     25875     25876     25877     25878     25877     25879
     25878     25879     25880     25881     25880     25882     25881     25882
     25883     25884     25883     25885     25884     25885     25886     25887
     25886     25888     25887     25888     25889     25890     25889     25891
     25890     25891     25892     25893     25892     25894     25893     25894
     25895     25896     25895     25897     25896     25897     25898     25899
     25898     25900     25899     25900     25901     25902     25901     25903
     25902     25903     25904     25905     25904     25906     25905     25906
     25907     25908     25907     25909     25908     25909     25910     25911
     25910     25912     25911     25912     25913     25914     25913     25915
     25914     25915     25916     25917     25916     25918     25917     25918
     25919     25920     25919     25921     25920     25921     25922     25923
     25922     25924     25923     25924     25925     25926     25925     25927
     25926     25927     25928     25929     25928     25930     25929     25930
     25931     25932     25931     25933     25932     25933     25934     25935
     25934     25936     25935     25936     25937     25938     25937     25939
     25938     25939     25940     25941     25940     25942     25941     25942
     25943     25944     25943     25945     25944     25945     25946     25947
     25946     25948     25947     25948     25949     25950     25949     25951
     25950     25951     25952     25953     25952     25954     25953     25954
     25955     25956     25955     25957     25956     25957     25958     25959
     25958     25960     25959     25960     25961     25962     25961     25963
     25962     25963     25964     25965     25964     25966     25965     25966
     25967     25968     25967     25969     25968     25969     25970     25971
     25970     25972     25971     25972     25973     25974     25973     25975
     25974     25975     25976     25977     25976     25978     25977     25978
     25979     25980     25979     25981     25980     25981     25982     25983
     25982     25984     25983     25984     25985     25986     25985     25987
     25986     25987     25988     25989     25988     25990     25989     25990
     25991     25992     25991     25993     25992     25993     25994     25995
     25994     25996     25995     25996     25997     25998     25997     25999
     25998     25999     26000     26001     26000     26002     26001     26002
     26003     26004     26003     26005     26004     26005     26006     26007
     26006     26008     26007     26008     26009     26010     26009     26011
     26010     26011     26012     26013     26012     26014     26013     26014
     26015     26016     26015     26017     26016     26017     26018     26019
     26018     26020     26019     26020     26021     26022     26021     26023
     26022     26023     26024     26025     26024     26026     26025     26026
     26027     26028     26027     26029     26028     26029     26030     26031
     26030     26032     26031     26032     26033     26034     26033     26035
     26034     26035     26036     26037     26036     26038     26037     26038
     26039     26040     26039     26041     26040     26041     26042     26043
     26042     26044     26043     26044     26045     26046     26045     26047
     26046     26047     26048     26049     26048     26050     26049     26050
     26051     26052     26051     26053     26052     26053     26054     26055
     26054     26056     26055     26056     26057     26058     26057     26059
     26058     26059     26060     26061     26060     26062     26061     26062
     26063     26064     26063     26065     26064     26065     26066     26067
     26066     26068     26067     26068     26069     26070     26069     26071
     26070     26071     26072     26073     26072     26074     26073     26074
     26075     26076     26075     26077     26076     26077     26078     26079
     26078     26080     26079     26080     26081     26082     26081     26083
     26082     26083     26084     26085     26084     26086     26085     26086
     26087     26088     26087     26089     26088     26089     26090     26091
     26090     26092     26091     26092     26093     26094     26093     26095
     26094     26095     26096     26097     26096     26098     26097     26098
     26099     26100     26099     26101     26100     26101     26102     26103
     26102     26104     26103     26104     26105     26106     26105     26107
     26106     26107     26108     26109     26108     26110     26109     26110
     26111     26112     26111     26113     26112     26113     26114     26115
     26114     26116     26115     26116     26117     26118     26117     26119
     26118     26119     26120     26121     26120     26122     26121     26122
     26123     26124     26123     26125     26124     26125     26126     26127
     26126     26128     26127     26128     26129     26130     26129     26131
     26130     26131     26132     26133     26132     26134     26133     26134
     26135     26136     26135     26137     26136     26137     26138     26139
     26138     26140     26139     26140     26141     26142     26141     26143
     26142     26143     26144     26145     26144     26146     26145     26146
     26147     26148     26147     26149     26148     26149     26150     26151
     26150     26152     26151     26152     26153     26154     26153     26155
     26154     26155     26156     26157     26156     26158     26157     26158
     26159     26160     26159     26161     26160     26161     26162     26163
     26162     26164     26163     26164     26165     26166     26165     26167
     26166     26167     26168     26169     26168     26170     26169     26170
     26171     26172     26171     26173     26172     26173     26174     26175
     26174     26176     26175     26176     26177     26178     26177     26179
     26178     26179     26180     26181     26180     26182     26181     26182
     26183     26184     26183     26185     26184     26185     26186     26187
     26186     26188     26187     26188     26189     26190     26189     26191
     26190     26191     26192     26193     26192     26194     26193     26194
     26195     26196     26195     26197     26196     26197     26198     26199
     26198     26200     26199     26200     26201     26202     26201     26203
     26202     26203     26204     26205     26204     26206     26205     26206
     26207     26208     26207     26209     26208     26209     26210     26211
     26210     26212     26211     26212     26213     26214     26213     26215
     26214     26215     26216     26217     26216     26218     26217     26218
     26219     26220     26219     26221     26220     26221     26222     26223
     26222     26224     26223     26224     26225     26226     26225     26227
     26226     26227     26228     26229     26228     26230     26229     26230
     26231     26232     26231     26233     26232     26233     26234     26235
     26234     26236     26235     26236     26237     26238     26237     26239
     26238     26239     26240     26241     26240     26242     26241     26242
     26243     26244     26243     26245     26244     26245     26246     26247
     26246     26248     26247     26248     26249     26250     26249     26251
     26250     26251     26252     26253     26252     26254     26253     26254
     26255     26256     26255     26257     26256     26257     26258     26259
     26258     26260     26259     26260     26261     26262     26261     26263
     26262     26263     26264     26265     26264     26266     26265     26266
     26267     26268     26267     26269     26268     26269     26270     26271
     26270     26272     26271     26272     26273     26274     26273     26275
     26274     26275     26276     26277     26276     26278     26277     26278
     26279     26280     26279     26281     26280     26281     26282     26283
     26282     26284     26283     26284     26285     26286     26285     26287
     26286     26287     26288     26289     26288     26290     26289     26290
     26291     26292     26291     26293     26292     26293     26294     26295
     26294     26296     26295     26296     26297     26298     26297     26299
     26298     26299     26300     26301     26300     26302     26301     26302
     26303     26304     26303     26305     26304     26305     26306     26307
     26306     26308     26307     26308     26309     26310     26309     26311
     26310     26311     26312     26313     26312     26314     26313     26314
     26315     26316     26315     26317     26316     26317     26318     26319
     26318     26320     26319     26320     26321     26322     26321     26323
     26322     26323     26324     26325     26324     26326     26325     26326
     26327     26328     26327     26329     26328     26329     26330     26331
     26330     26332     26331     26332     26333     26334     26333     26335
     26334     26335     26336     26337     26336     26338     26337     26338
     26339     26340     26339     26341     26340     26341     26342     26343
     26342     26344     26343     26344     26345     26346     26345     26347
     26346     26347     26348     26349     26348     26350     26349     26350
     26351     26352     26351     26353     26352     26353     26354     26355
     26354     26356     26355     26356     26357     26358     26357     26359
     26358     26359     26360     26361     26360     26362     26361     26362
     26363     26364     26363     26365     26364     26365     26366     26367
     26366     26368     26367     26368     26369     26370     26369     26371
     26370     26371     26372     26373     26372     26374     26373     26374
     26375     26376     26375     26377     26376     26377     26378     26379
     26378     26380     26379     26380     26381     26382     26381     26383
     26382     26383     26384     26385     26384     26386     26385     26386
     26387     26388     26387     26389     26388     26389     26390     26391
     26390     26392     26391     26392     26393     26394     26393     26395
     26394     26395     26396     26397     26396     26398     26397     26398
     26399     26400     26399     26401     26400     26401     26402     26403
     26402     26404     26403     26404     26405     26406     26405     26407
     26406     26407     26408     26409     26408     26410     26409     26410
     26411     26412     26411     26413     26412     26413     26414     26415
     26414     26416     26415     26416     26417     26418     26417     26419
     26418     26419     26420     26421     26420     26422     26421     26422
     26423     26424     26423     26425     26424     26425     26426     26427
     26426     26428     26427     26428     26429     26430     26429     26431
     26430     26431     26432     26433     26432     26434     26433     26434
     26435     26436     26435     26437     26436     26437     26438     26439
     26438     26440     26439     26440     26441     26442     26441     26443
     26442     26443     26444     26445     26444     26446     26445     26446
     26447     26448     26447     26449     26448     26449     26450     26451
     26450     26452     26451     26452     26453     26454     26453     26455
     26454     26455     26456     26457     26456     26458     26457     26458
     26459     26460     26459     26461     26460     26461     26462     26463
     26462     26464     26463     26464     26465     26466     26465     26467
     26466     26467     26468     26469     26468     26470     26469     26470
     26471     26472     26471     26473     26472     26473     26474     26475
     26474     26476     26475     26476     26477     26478     26477     26479
     26478     26479     26480     26481     26480     26482     26481     26482
     26483     26484     26483     26485     26484     26485     26486     26487
     26486     26488     26487     26488     26489     26490     26489     26491
     26490     26491     26492     26493     26492     26494     26493     26494
     26495     26496     26495     26497     26496     26497     26498     26499
     26498     26500     26499     26500     26501     26502     26501     26503
     26502     26503     26504     26505     26504     26506     26505     26506
     26507     26508     26507     26509     26508     26509     26510     26511
     26510     26512     26511     26512     26513     26514     26513     26515
     26514     26515     26516     26517     26516     26518     26517     26518
     26519     26520     26519     26521     26520     26521     26522     26523
     26522     26524     26523     26524     26525     26526     26525     26527
     26526     26527     26528     26529     26528     26530     26529     26530
     26531     26532     26531     26533     26532     26533     26534     26535
     26534     26536     26535     26536     26537     26538     26537     26539
     26538     26539     26540     26541     26540     26542     26541     26542
     26543     26544     26543     26545     26544     26545     26546     26547
     26546     26548     26547     26548     26549     26550     26549     26551
     26550     26551     26552     26553     26552     26554     26553     26554
     26555     26556     26555     26557     26556     26557     26558     26559
     26558     26560     26559     26560     26561     26562     26561     26563
     26562     26563     26564     26565     26564     26566     26565     26566
     26567     26568     26567     26569     26568     26569     26570     26571
     26570     26572     26571     26572     26573     26574     26573     26575
     26574     26575     26576     26577     26576     26578     26577     26578
     26579     26580     26579     26581     26580     26581     26582     26583
     26582     26584     26583     26584     26585     26586     26585     26587
     26586     26587     26588     26589     26588     26590     26589     26590
     26591     26592     26591     26593     26592     26593     26594     26595
     26594     26596     26595     26596     26597     26598     26597     26599
     26598     26599     26600     26601     26600     26602     26601     26602
     26603     26604     26603     26605     26604     26605     26606     26607
     26606     26608     26607     26608     26609     26610     26609     26611
     26610     26611     26612     26613     26612     26614     26613     26614
     26615     26616     26615     26617     26616     26617     26618     26619
     26618     26620     26619     26620     26621     26622     26621     26623
     26622     26623     26624     26625     26624     26626     26625     26626
     26627     26628     26627     26629     26628     26629     26630     26631
     26630     26632     26631     26632     26633     26634     26633     26635
     26634     26635     26636     26637     26636     26638     26637     26638
     26639     26640     26639     26641     26640     26641     26642     26643
     26642     26644     26643     26644     26645     26646     26645     26647
     26646     26647     26648     26649     26648     26650     26649     26650
     26651     26652     26651     26653     26652     26653     26654     26655
     26654     26656     26655     26656     26657     26658     26657     26659
     26658     26659     26660     26661     26660     26662     26661     26662
     26663     26664     26663     26665     26664     26665     26666     26667
     26666     26668     26667     26668     26669     26670     26669     26671
     26670     26671     26672     26673     26672     26674     26673     26674
     26675     26676     26675     26677     26676     26677     26678     26679
     26678     26680     26679     26680     26681     26682     26681     26683
     26682     26683     26684     26685     26684     26686     26685     26686
     26687     26688     26687     26689     26688     26689     26690     26691
     26690     26692     26691     26692     26693     26694     26693     26695
     26694     26695     26696     26697     26696     26698     26697     26698
     26699     26700     26699     26701     26700     26701     26702     26703
     26702     26704     26703     26704     26705     26706     26705     26707
     26706     26707     26708     26709     26708     26710     26709     26710
     26711     26712     26711     26713     26712     26713     26714     26715
     26714     26716     26715     26716     26717     26718     26717     26719
     26718     26719     26720     26721     26720     26722     26721     26722
     26723     26724     26723     26725     26724     26725     26726     26727
     26726     26728     26727     26728     26729     26730     26729     26731
     26730     26731     26732     26733     26732     26734     26733     26734
     26735     26736     26735     26737     26736     26737     26738     26739
     26738     26740     26739     26740     26741     26742     26741     26743
     26742     26743     26744     26745     26744     26746     26745     26746
     26747     26748     26747     26749     26748     26749     26750     26751
     26750     26752     26751     26752     26753     26754     26753     26755
     26754     26755     26756     26757     26756     26758     26757     26758
     26759     26760     26759     26761     26760     26761     26762     26763
     26762     26764     26763     26764     26765     26766     26765     26767
     26766     26767     26768     26769     26768     26770     26769     26770
     26771     26772     26771     26773     26772     26773     26774     26775
     26774     26776     26775     26776     26777     26778     26777     26779
     26778     26779     26780     26781     26780     26782     26781     26782
     26783     26784     26783     26785     26784     26785     26786     26787
     26786     26788     26787     26788     26789     26790     26789     26791
     26790     26791     26792     26793     26792     26794     26793     26794
     26795     26796     26795     26797     26796     26797     26798     26799
     26798     26800     26799     26800     26801     26802     26801     26803
     26802     26803     26804     26805     26804     26806     26805     26806
     26807     26808     26807     26809     26808     26809     26810     26811
     26810     26812     26811     26812     26813     26814     26813     26815
     26814     26815     26816     26817     26816     26818     26817     26818
     26819     26820     26819     26821     26820     26821     26822     26823
     26822     26824     26823     26824     26825     26826     26825     26827
     26826     26827     26828     26829     26828     26830     26829     26830
     26831     26832     26831     26833     26832     26833     26834     26835
     26834     26836     26835     26836     26837     26838     26837     26839
     26838     26839     26840     26841     26840     26842     26841     26842
     26843     26844     26843     26845     26844     26845     26846     26847
     26846     26848     26847     26848     26849     26850     26849     26851
     26850     26851     26852     26853     26852     26854     26853     26854
     26855     26856     26855     26857     26856     26857     26858     26859
     26858     26860     26859     26860     26861     26862     26861     26863
     26862     26863     26864     26865     26864     26866     26865     26866
     26867     26868     26867     26869     26868     26869     26870     26871
     26870     26872     26871     26872     26873     26874     26873     26875
     26874     26875     26876     26877     26876     26878     26877     26878
     26879     26880     26879     26881     26880     26881     26882     26883
     26882     26884     26883     26884     26885     26886     26885     26887
     26886     26887     26888     26889     26888     26890     26889     26890
     26891     26892     26891     26893     26892     26893     26894     26895
     26894     26896     26895     26896     26897     26898     26897     26899
     26898     26899     26900     26901     26900     26902     26901     26902
     26903     26904     26903     26905     26904     26905     26906     26907
     26906     26908     26907     26908     26909     26910     26909     26911
     26910     26911     26912     26913     26912     26914     26913     26914
     26915     26916     26915     26917     26916     26917     26918     26919
     26918     26920     26919     26920     26921     26922     26921     26923
     26922     26923     26924     26925     26924     26926     26925     26926
     26927     26928     26927     26929     26928     26929     26930     26931
     26930     26932     26931     26932     26933     26934     26933     26935
     26934     26935     26936     26937     26936     26938     26937     26938
     26939     26940     26939     26941     26940     26941     26942     26943
     26942     26944     26943     26944     26945     26946     26945     26947
     26946     26947     26948     26949     26948     26950     26949     26950
     26951     26952     26951     26953     26952     26953     26954     26955
     26954     26956     26955     26956     26957     26958     26957     26959
     26958     26959     26960     26961     26960     26962     26961     26962
     26963     26964     26963     26965     26964     26965     26966     26967
     26966     26968     26967     26968     26969     26970     26969     26971
     26970     26971     26972     26973     26972     26974     26973     26974
     26975     26976     26975     26977     26976     26977     26978     26979
     26978     26980     26979     26980     26981     26982     26981     26983
     26982     26983     26984     26985     26984     26986     26985     26986
     26987     26988     26987     26989     26988     26989     26990     26991
     26990     26992     26991     26992     26993     26994     26993     26995
     26994     26995     26996     26997     26996     26998     26997     26998
     26999     27000     26999     27001     27000     27001     27002     27003
     27002     27004     27003     27004     27005     27006     27005     27007
     27006     27007     27008     27009     27008     27010     27009     27010
     27011     27012     27011     27013     27012     27013     27014     27015
     27014     27016     27015     27016     27017     27018     27017     27019
     27018     27019     27020     27021     27020     27022     27021     27022
     27023     27024     27023     27025     27024     27025     27026     27027
     27026     27028     27027     27028     27029     27030     27029     27031
     27030     27031     27032     27033     27032     27034     27033     27034
     27035     27036     27035     27037     27036     27037     27038     27039
     27038     27040     27039     27040     27041     27042     27041     27043
     27042     27043     27044     27045     27044     27046     27045     27046
     27047     27048     27047     27049     27048     27049     27050     27051
     27050     27052     27051     27052     27053     27054     27053     27055
     27054     27055     27056     27057     27056     27058     27057     27058
     27059     27060     27059     27061     27060     27061     27062     27063
     27062     27064     27063     27064     27065     27066     27065     27067
     27066     27067     27068     27069     27068     27070     27069     27070
     27071     27072     27071     27073     27072     27073     27074     27075
     27074     27076     27075     27076     27077     27078     27077     27079
     27078     27079     27080     27081     27080     27082     27081     27082
     27083     27084     27083     27085     27084     27085     27086     27087
     27086     27088     27087     27088     27089     27090     27089     27091
     27090     27091     27092     27093     27092     27094     27093     27094
     27095     27096     27095     27097     27096     27097     27098     27099
     27098     27100     27099     27100     27101     27102     27101     27103
     27102     27103     27104     27105     27104     27106     27105     27106
     27107     27108     27107     27109     27108     27109     27110     27111
     27110     27112     27111     27112     27113     27114     27113     27115
     27114     27115     27116     27117     27116     27118     27117     27118
     27119     27120     27119     27121     27120     27121     27122     27123
     27122     27124     27123     27124     27125     27126     27125     27127
     27126     27127     27128     27129     27128     27130     27129     27130
     27131     27132     27131     27133     27132     27133     27134     27135
     27134     27136     27135     27136     27137     27138     27137     27139
     27138     27139     27140     27141     27140     27142     27141     27142
     27143     27144     27143     27145     27144     27145     27146     27147
     27146     27148     27147     27148     27149     27150     27149     27151
     27150     27151     27152     27153     27152     27154     27153     27154
     27155     27156     27155     27157     27156     27157     27158     27159
     27158     27160     27159     27160     27161     27162     27161     27163
     27162     27163     27164     27165     27164     27166     27165     27166
     27167     27168     27167     27169     27168     27169     27170     27171
     27170     27172     27171     27172     27173     27174     27173     27175
     27174     27175     27176     27177     27176     27178     27177     27178
     27179     27180     27179     27181     27180     27181     27182     27183
     27182     27184     27183     27184     27185     27186     27185     27187
     27186     27187     27188     27189     27188     27190     27189     27190
     27191     27192     27191     27193     27192     27193     27194     27195
     27194     27196     27195     27196     27197     27198     27197     27199
     27198     27199     27200     27201     27200     27202     27201     27202
     27203     27204     27203     27205     27204     27205     27206     27207
     27206     27208     27207     27208     27209     27210     27209     27211
     27210     27211     27212     27213     27212     27214     27213     27214
     27215     27216     27215     27217     27216     27217     27218     27219
     27218     27220     27219     27220     27221     27222     27221     27223
     27222     27223     27224     27225     27224     27226     27225     27226
     27227     27228     27227     27229     27228     27229     27230     27231
     27230     27232     27231     27232     27233     27234     27233     27235
     27234     27235     27236     27237     27236     27238     27237     27238
     27239     27240     27239     27241     27240     27241     27242     27243
     27242     27244     27243     27244     27245     27246     27245     27247
     27246     27247     27248     27249     27248     27250     27249     27250
     27251     27252     27251     27253     27252     27253     27254     27255
     27254     27256     27255     27256     27257     27258     27257     27259
     27258     27259     27260     27261     27260     27262     27261     27262
     27263     27264     27263     27265     27264     27265     27266     27267
     27266     27268     27267     27268     27269     27270     27269     27271
     27270     27271     27272     27273     27272     27274     27273     27274
     27275     27276     27275     27277     27276     27277     27278     27279
     27278     27280     27279     27280     27281     27282     27281     27283
     27282     27283     27284     27285     27284     27286     27285     27286
     27287     27288     27287     27289     27288     27289     27290     27291
     27290     27292     27291     27292     27293     27294     27293     27295
     27294     27295     27296     27297     27296     27298     27297     27298
     27299     27300     27299     27301     27300     27301     27302     27303
     27302     27304     27303     27304     27305     27306     27305     27307
     27306     27307     27308     27309     27308     27310     27309     27310
     27311     27312     27311     27313     27312     27313     27314     27315
     27314     27316     27315     27316     27317     27318     27317     27319
     27318     27319     27320     27321     27320     27322     27321     27322
     27323     27324     27323     27325     27324     27325     27326     27327
     27326     27328     27327     27328     27329     27330     27329     27331
     27330     27331     27332     27333     27332     27334     27333     27334
     27335     27336     27335     27337     27336     27337     27338     27339
     27338     27340     27339     27340     27341     27342     27341     27343
     27342     27343     27344     27345     27344     27346     27345     27346
     27347     27348     27347     27349     27348     27349     27350     27351
     27350     27352     27351     27352     27353     27354     27353     27355
     27354     27355     27356     27357     27356     27358     27357     27358
     27359     27360     27359     27361     27360     27361     27362     27363
     27362     27364     27363     27364     27365     27366     27365     27367
     27366     27367     27368     27369     27368     27370     27369     27370
     27371     27372     27371     27373     27372     27373     27374     27375
     27374     27376     27375     27376     27377     27378     27377     27379
     27378     27379     27380     27381     27380     27382     27381     27382
     27383     27384     27383     27385     27384     27385     27386     27387
     27386     27388     27387     27388     27389     27390     27389     27391
     27390     27391     27392     27393     27392     27394     27393     27394
     27395     27396     27395     27397     27396     27397     27398     27399
     27398     27400     27399     27400     27401     27402     27401     27403
     27402     27403     27404     27405     27404     27406     27405     27406
     27407     27408     27407     27409     27408     27409     27410     27411
     27410     27412     27411     27412     27413     27414     27413     27415
     27414     27415     27416     27417     27416     27418     27417     27418
     27419     27420     27419     27421     27420     27421     27422     27423
     27422     27424     27423     27424     27425     27426     27425     27427
     27426     27427     27428     27429     27428     27430     27429     27430
     27431     27432     27431     27433     27432     27433     27434     27435
     27434     27436     27435     27436     27437     27438     27437     27439
     27438     27439     27440     27441     27440     27442     27441     27442
     27443     27444     27443     27445     27444     27445     27446     27447
     27446     27448     27447     27448     27449     27450     27449     27451
     27450     27451     27452     27453     27452     27454     27453     27454
     27455     27456     27455     27457     27456     27457     27458     27459
     27458     27460     27459     27460     27461     27462     27461     27463
     27462     27463     27464     27465     27464     27466     27465     27466
     27467     27468     27467     27469     27468     27469     27470     27471
     27470     27472     27471     27472     27473     27474     27473     27475
     27474     27475     27476     27477     27476     27478     27477     27478
     27479     27480     27479     27481     27480     27481     27482     27483
     27482     27484     27483     27484     27485     27486     27485     27487
     27486     27487     27488     27489     27488     27490     27489     27490
     27491     27492     27491     27493     27492     27493     27494     27495
     27494     27496     27495     27496     27497     27498     27497     27499
     27498     27499     27500     27501     27500     27502     27501     27502
     27503     27504     27503     27505     27504     27505     27506     27507
     27506     27508     27507     27508     27509     27510     27509     27511
     27510     27511     27512     27513     27512     27514     27513     27514
     27515     27516     27515     27517     27516     27517     27518     27519
     27518     27520     27519     27520     27521     27522     27521     27523
     27522     27523     27524     27525     27524     27526     27525     27526
     27527     27528     27527     27529     27528     27529     27530     27531
     27530     27532     27531     27532     27533     27534     27533     27535
     27534     27535     27536     27537     27536     27538     27537     27538
     27539     27540     27539     27541     27540     27541     27542     27543
     27542     27544     27543     27544     27545     27546     27545     27547
     27546     27547     27548     27549     27548     27550     27549     27550
     27551     27552     27551     27553     27552     27553     27554     27555
     27554     27556     27555     27556     27557     27558     27557     27559
     27558     27559     27560     27561     27560     27562     27561     27562
     27563     27564     27563     27565     27564     27565     27566     27567
     27566     27568     27567     27568     27569     27570     27569     27571
     27570     27571     27572     27573     27572     27574     27573     27574
     27575     27576     27575     27577     27576     27577     27578     27579
     27578     27580     27579     27580     27581     27582     27581     27583
     27582     27583     27584     27585     27584     27586     27585     27586
     27587     27588     27587     27589     27588     27589     27590     27591
     27590     27592     27591     27592     27593     27594     27593     27595
     27594     27595     27596     27597     27596     27598     27597     27598
     27599     27600     27599     27601     27600     27601     27602     27603
     27602     27604     27603     27604     27605     27606     27605     27607
     27606     27607     27608     27609     27608     27610     27609     27610
     27611     27612     27611     27613     27612     27613     27614     27615
     27614     27616     27615     27616     27617     27618     27617     27619
     27618     27619     27620     27621     27620     27622     27621     27622
     27623     27624     27623     27625     27624     27625     27626     27627
     27626     27628     27627     27628     27629     27630     27629     27631
     27630     27631     27632     27633     27632     27634     27633     27634
     27635     27636     27635     27637     27636     27637     27638     27639
     27638     27640     27639     27640     27641     27642     27641     27643
     27642     27643     27644     27645     27644     27646     27645     27646
     27647     27648     27647     27649     27648     27649     27650     27651
     27650     27652     27651     27652     27653     27654     27653     27655
     27654     27655     27656     27657     27656     27658     27657     27658
     27659     27660     27659     27661     27660     27661     27662     27663
     27662     27664     27663     27664     27665     27666     27665     27667
     27666     27667     27668     27669     27668     27670     27669     27670
     27671     27672     27671     27673     27672     27673     27674     27675
     27674     27676     27675     27676     27677     27678     27677     27679
     27678     27679     27680     27681     27680     27682     27681     27682
     27683     27684     27683     27685     27684     27685     27686     27687
     27686     27688     27687     27688     27689     27690     27689     27691
     27690     27691     27692     27693     27692     27694     27693     27694
     27695     27696     27695     27697     27696     27697     27698     27699
     27698     27700     27699     27700     27701     27702     27701     27703
     27702     27703     27704     27705     27704     27706     27705     27706
     27707     27708     27707     27709     27708     27709     27710     27711
     27710     27712     27711     27712     27713     27714     27713     27715
     27714     27715     27716     27717     27716     27718     27717     27718
     27719     27720     27719     27721     27720     27721     27722     27723
     27722     27724     27723     27724     27725     27726     27725     27727
     27726     27727     27728     27729     27728     27730     27729     27730
     27731     27732     27731     27733     27732     27733     27734     27735
     27734     27736     27735     27736     27737     27738     27737     27739
     27738     27739     27740     27741     27740     27742     27741     27742
     27743     27744     27743     27745     27744     27745     27746     27747
     27746     27748     27747     27748     27749     27750     27749     27751
     27750     27751     27752     27753     27752     27754     27753     27754
     27755     27756     27755     27757     27756     27757     27758     27759
     27758     27760     27759     27760     27761     27762     27761     27763
     27762     27763     27764     27765     27764     27766     27765     27766
     27767     27768     27767     27769     27768     27769     27770     27771
     27770     27772     27771     27772     27773     27774     27773     27775
     27774     27775     27776     27777     27776     27778     27777     27778
     27779     27780     27779     27781     27780     27781     27782     27783
     27782     27784     27783     27784     27785     27786     27785     27787
     27786     27787     27788     27789     27788     27790     27789     27790
     27791     27792     27791     27793     27792     27793     27794     27795
     27794     27796     27795     27796     27797     27798     27797     27799
     27798     27799     27800     27801     27800     27802     27801     27802
     27803     27804     27803     27805     27804     27805     27806     27807
     27806     27808     27807     27808     27809     27810     27809     27811
     27810     27811     27812     27813     27812     27814     27813     27814
     27815     27816     27815     27817     27816     27817     27818     27819
     27818     27820     27819     27820     27821     27822     27821     27823
     27822     27823     27824     27825     27824     27826     27825     27826
     27827     27828     27827     27829     27828     27829     27830     27831
     27830     27832     27831     27832     27833     27834     27833     27835
     27834     27835     27836     27837     27836     27838     27837     27838
     27839     27840     27839     27841     27840     27841     27842     27843
     27842     27844     27843     27844     27845     27846     27845     27847
     27846     27847     27848     27849     27848     27850     27849     27850
     27851     27852     27851     27853     27852     27853     27854     27855
     27854     27856     27855     27856     27857     27858     27857     27859
     27858     27859     27860     27861     27860     27862     27861     27862
     27863     27864     27863     27865     27864     27865     27866     27867
     27866     27868     27867     27868     27869     27870     27869     27871
     27870     27871     27872     27873     27872     27874     27873     27874
     27875     27876     27875     27877     27876     27877     27878     27879
     27878     27880     27879     27880     27881     27882     27881     27883
     27882     27883     27884     27885     27884     27886     27885     27886
     27887     27888     27887     27889     27888     27889     27890     27891
     27890     27892     27891     27892     27893     27894     27893     27895
     27894     27895     27896     27897     27896     27898     27897     27898
     27899     27900     27899     27901     27900     27901     27902     27903
     27902     27904     27903     27904     27905     27906     27905     27907
     27906     27907     27908     27909     27908     27910     27909     27910
     27911     27912     27911     27913     27912     27913     27914     27915
     27914     27916     27915     27916     27917     27918     27917     27919
     27918     27919     27920     27921     27920     27922     27921     27922
     27923     27924     27923     27925     27924     27925     27926     27927
     27926     27928     27927     27928     27929     27930     27929     27931
     27930     27931     27932     27933     27932     27934     27933     27934
     27935     27936     27935     27937     27936     27937     27938     27939
     27938     27940     27939     27940     27941     27942     27941     27943
     27942     27943     27944     27945     27944     27946     27945     27946
     27947     27948     27947     27949     27948     27949     27950     27951
     27950     27952     27951     27952     27953     27954     27953     27955
     27954     27955     27956     27957     27956     27958     27957     27958
     27959     27960     27959     27961     27960     27961     27962     27963
     27962     27964     27963     27964     27965     27966     27965     27967
     27966     27967     27968     27969     27968     27970     27969     27970
     27971     27972     27971     27973     27972     27973     27974     27975
     27974     27976     27975     27976     27977     27978     27977     27979
     27978     27979     27980     27981     27980     27982     27981     27982
     27983     27984     27983     27985     27984     27985     27986     27987
     27986     27988     27987     27988     27989     27990     27989     27991
     27990     27991     27992     27993     27992     27994     27993     27994
     27995     27996     27995     27997     27996     27997     27998     27999
     27998     28000     27999     28000     28001     28002     28001     28003
     28002     28003     28004     28005     28004     28006     28005     28006
     28007     28008     28007     28009     28008     28009     28010     28011
     28010     28012     28011     28012     28013     28014     28013     28015
     28014     28015     28016     28017     28016     28018     28017     28018
     28019     28020     28019     28021     28020     28021     28022     28023
     28022     28024     28023     28024     28025     28026     28025     28027
     28026     28027     28028     28029     28028     28030     28029     28030
     28031     28032     28031     28033     28032     28033     28034     28035
     28034     28036     28035     28036     28037     28038     28037     28039
     28038     28039     28040     28041     28040     28042     28041     28042
     28043     28044     28043     28045     28044     28045     28046     28047
     28046     28048     28047     28048     28049     28050     28049     28051
     28050     28051     28052     28053     28052     28054     28053     28054
     28055     28056     28055     28057     28056     28057     28058     28059
     28058     28060     28059     28060     28061     28062     28061     28063
     28062     28063     28064     28065     28064     28066     28065     28066
     28067     28068     28067     28069     28068     28069     28070     28071
     28070     28072     28071     28072     28073     28074     28073     28075
     28074     28075     28076     28077     28076     28078     28077     28078
     28079     28080     28079     28081     28080     28081     28082     28083
     28082     28084     28083     28084     28085     28086     28085     28087
     28086     28087     28088     28089     28088     28090     28089     28090
     28091     28092     28091     28093     28092     28093     28094     28095
     28094     28096     28095     28096     28097     28098     28097     28099
     28098     28099     28100     28101     28100     28102     28101     28102
     28103     28104     28103     28105     28104     28105     28106     28107
     28106     28108     28107     28108     28109     28110     28109     28111
     28110     28111     28112     28113     28112     28114     28113     28114
     28115     28116     28115     28117     28116     28117     28118     28119
     28118     28120     28119     28120     28121     28122     28121     28123
     28122     28123     28124     28125     28124     28126     28125     28126
     28127     28128     28127     28129     28128     28129     28130     28131
     28130     28132     28131     28132     28133     28134     28133     28135
     28134     28135     28136     28137     28136     28138     28137     28138
     28139     28140     28139     28141     28140     28141     28142     28143
     28142     28144     28143     28144     28145     28146     28145     28147
     28146     28147     28148     28149     28148     28150     28149     28150
     28151     28152     28151     28153     28152     28153     28154     28155
     28154     28156     28155     28156     28157     28158     28157     28159
     28158     28159     28160     28161     28160     28162     28161     28162
     28163     28164     28163     28165     28164     28165     28166     28167
     28166     28168     28167     28168     28169     28170     28169     28171
     28170     28171     28172     28173     28172     28174     28173     28174
     28175     28176     28175     28177     28176     28177     28178     28179
     28178     28180     28179     28180     28181     28182     28181     28183
     28182     28183     28184     28185     28184     28186     28185     28186
     28187     28188     28187     28189     28188     28189     28190     28191
     28190     28192     28191     28192     28193     28194     28193     28195
     28194     28195     28196     28197     28196     28198     28197     28198
     28199     28200     28199     28201     28200     28201     28202     28203
     28202     28204     28203     28204     28205     28206     28205     28207
     28206     28207     28208     28209     28208     28210     28209     28210
     28211     28212     28211     28213     28212     28213     28214     28215
     28214     28216     28215     28216     28217     28218     28217     28219
     28218     28219     28220     28221     28220     28222     28221     28222
     28223     28224     28223     28225     28224     28225     28226     28227
     28226     28228     28227     28228     28229     28230     28229     28231
     28230     28231     28232     28233     28232     28234     28233     28234
     28235     28236     28235     28237     28236     28237     28238     28239
     28238     28240     28239     28240     28241     28242     28241     28243
     28242     28243     28244     28245     28244     28246     28245     28246
     28247     28248     28247     28249     28248     28249     28250     28251
     28250     28252     28251     28252     28253     28254     28253     28255
     28254     28255     28256     28257     28256     28258     28257     28258
     28259     28260     28259     28261     28260     28261     28262     28263
     28262     28264     28263     28264     28265     28266     28265     28267
     28266     28267     28268     28269     28268     28270     28269     28270
     28271     28272     28271     28273     28272     28273     28274     28275
     28274     28276     28275     28276     28277     28278     28277     28279
     28278     28279     28280     28281     28280     28282     28281     28282
     28283     28284     28283     28285     28284     28285     28286     28287
     28286     28288     28287     28288     28289     28290     28289     28291
     28290     28291     28292     28293     28292     28294     28293     28294
     28295     28296     28295     28297     28296     28297     28298     28299
     28298     28300     28299     28300     28301     28302     28301     28303
     28302     28303     28304     28305     28304     28306     28305     28306
     28307     28308     28307     28309     28308     28309     28310     28311
     28310     28312     28311     28312     28313     28314     28313     28315
     28314     28315     28316     28317     28316     28318     28317     28318
     28319     28320     28319     28321     28320     28321     28322     28323
     28322     28324     28323     28324     28325     28326     28325     28327
     28326     28327     28328     28329     28328     28330     28329     28330
     28331     28332     28331     28333     28332     28333     28334     28335
     28334     28336     28335     28336     28337     28338     28337     28339
     28338     28339     28340     28341     28340     28342     28341     28342
     28343     28344     28343     28345     28344     28345     28346     28347
     28346     28348     28347     28348     28349     28350     28349     28351
     28350     28351     28352     28353     28352     28354     28353     28354
     28355     28356     28355     28357     28356     28357     28358     28359
     28358     28360     28359     28360     28361     28362     28361     28363
     28362     28363     28364     28365     28364     28366     28365     28366
     28367     28368     28367     28369     28368     28369     28370     28371
     28370     28372     28371     28372     28373     28374     28373     28375
     28374     28375     28376     28377     28376     28378     28377     28378
     28379     28380     28379     28381     28380     28381     28382     28383
     28382     28384     28383     28384     28385     28386     28385     28387
     28386     28387     28388     28389     28388     28390     28389     28390
     28391     28392     28391     28393     28392     28393     28394     28395
     28394     28396     28395     28396     28397     28398     28397     28399
     28398     28399     28400     28401     28400     28402     28401     28402
     28403     28404     28403     28405     28404     28405     28406     28407
     28406     28408     28407     28408     28409     28410     28409     28411
     28410     28411     28412     28413     28412     28414     28413     28414
     28415     28416     28415     28417     28416     28417     28418     28419
     28418     28420     28419     28420     28421     28422     28421     28423
     28422     28423     28424     28425     28424     28426     28425     28426
     28427     28428     28427     28429     28428     28429     28430     28431
     28430     28432     28431     28432     28433     28434     28433     28435
     28434     28435     28436     28437     28436     28438     28437     28438
     28439     28440     28439     28441     28440     28441     28442     28443
     28442     28444     28443     28444     28445     28446     28445     28447
     28446     28447     28448     28449     28448     28450     28449     28450
     28451     28452     28451     28453     28452     28453     28454     28455
     28454     28456     28455     28456     28457     28458     28457     28459
     28458     28459     28460     28461     28460     28462     28461     28462
     28463     28464     28463     28465     28464     28465     28466     28467
     28466     28468     28467     28468     28469     28470     28469     28471
     28470     28471     28472     28473     28472     28474     28473     28474
     28475     28476     28475     28477     28476     28477     28478     28479
     28478     28480     28479     28480     28481     28482     28481     28483
     28482     28483     28484     28485     28484     28486     28485     28486
     28487     28488     28487     28489     28488     28489     28490     28491
     28490     28492     28491     28492     28493     28494     28493     28495
     28494     28495     28496     28497     28496     28498     28497     28498
     28499     28500     28499     28501     28500     28501     28502     28503
     28502     28504     28503     28504     28505     28506     28505     28507
     28506     28507     28508     28509     28508     28510     28509     28510
     28511     28512     28511     28513     28512     28513     28514     28515
     28514     28516     28515     28516     28517     28518     28517     28519
     28518     28519     28520     28521     28520     28522     28521     28522
     28523     28524     28523     28525     28524     28525     28526     28527
     28526     28528     28527     28528     28529     28530     28529     28531
     28530     28531     28532     28533     28532     28534     28533     28534
     28535     28536     28535     28537     28536     28537     28538     28539
     28538     28540     28539     28540     28541     28542     28541     28543
     28542     28543     28544     28545     28544     28546     28545     28546
     28547     28548     28547     28549     28548     28549     28550     28551
     28550     28552     28551     28552     28553     28554     28553     28555
     28554     28555     28556     28557     28556     28558     28557     28558
     28559     28560     28559     28561     28560     28561     28562     28563
     28562     28564     28563     28564     28565     28566     28565     28567
     28566     28567     28568     28569     28568     28570     28569     28570
     28571     28572     28571     28573     28572     28573     28574     28575
     28574     28576     28575     28576     28577     28578     28577     28579
     28578     28579     28580     28581     28580     28582     28581     28582
     28583     28584     28583     28585     28584     28585     28586     28587
     28586     28588     28587     28588     28589     28590     28589     28591
     28590     28591     28592     28593     28592     28594     28593     28594
     28595     28596     28595     28597     28596     28597     28598     28599
     28598     28600     28599     28600     28601     28602     28601     28603
     28602     28603     28604     28605     28604     28606     28605     28606
     28607     28608     28607     28609     28608     28609     28610     28611
     28610     28612     28611     28612     28613     28614     28613     28615
     28614     28615     28616     28617     28616     28618     28617     28618
     28619     28620     28619     28621     28620     28621     28622     28623
     28622     28624     28623     28624     28625     28626     28625     28627
     28626     28627     28628     28629     28628     28630     28629     28630
     28631     28632     28631     28633     28632     28633     28634     28635
     28634     28636     28635     28636     28637     28638     28637     28639
     28638     28639     28640     28641     28640     28642     28641     28642
     28643     28644     28643     28645     28644     28645     28646     28647
     28646     28648     28647     28648     28649     28650     28649     28651
     28650     28651     28652     28653     28652     28654     28653     28654
     28655     28656     28655     28657     28656     28657     28658     28659
     28658     28660     28659     28660     28661     28662     28661     28663
     28662     28663     28664     28665     28664     28666     28665     28666
     28667     28668     28667     28669     28668     28669     28670     28671
     28670     28672     28671     28672     28673     28674     28673     28675
     28674     28675     28676     28677     28676     28678     28677     28678
     28679     28680     28679     28681     28680     28681     28682     28683
     28682     28684     28683     28684     28685     28686     28685     28687
     28686     28687     28688     28689     28688     28690     28689     28690
     28691     28692     28691     28693     28692     28693     28694     28695
     28694     28696     28695     28696     28697     28698     28697     28699
     28698     28699     28700     28701     28700     28702     28701     28702
     28703     28704     28703     28705     28704     28705     28706     28707
     28706     28708     28707     28708     28709     28710     28709     28711
     28710     28711     28712     28713     28712     28714     28713     28714
     28715     28716     28715     28717     28716     28717     28718     28719
     28718     28720     28719     28720     28721     28722     28721     28723
     28722     28723     28724     28725     28724     28726     28725     28726
     28727     28728     28727     28729     28728     28729     28730     28731
     28730     28732     28731     28732     28733     28734     28733     28735
     28734     28735     28736     28737     28736     28738     28737     28738
     28739     28740     28739     28741     28740     28741     28742     28743
     28742     28744     28743     28744     28745     28746     28745     28747
     28746     28747     28748     28749     28748     28750     28749     28750
     28751     28752     28751     28753     28752     28753     28754     28755
     28754     28756     28755     28756     28757     28758     28757     28759
     28758     28759     28760     28761     28760     28762     28761     28762
     28763     28764     28763     28765     28764     28765     28766     28767
     28766     28768     28767     28768     28769     28770     28769     28771
     28770     28771     28772     28773     28772     28774     28773     28774
     28775     28776     28775     28777     28776     28777     28778     28779
     28778     28780     28779     28780     28781     28782     28781     28783
     28782     28783     28784     28785     28784     28786     28785     28786
     28787     28788     28787     28789     28788     28789     28790     28791
     28790     28792     28791     28792     28793     28794     28793     28795
     28794     28795     28796     28797     28796     28798     28797     28798
     28799     28800     28799     28801     28800     28801     28802     28803
     28802     28804     28803     28804     28805     28806     28805     28807
     28806     28807     28808     28809     28808     28810     28809     28810
     28811     28812     28811     28813     28812     28813     28814     28815
     28814     28816     28815     28816     28817     28818     28817     28819
     28818     28819     28820     28821     28820     28822     28821     28822
     28823     28824     28823     28825     28824     28825     28826     28827
     28826     28828     28827     28828     28829     28830     28829     28831
     28830     28831     28832     28833     28832     28834     28833     28834
     28835     28836     28835     28837     28836     28837     28838     28839
     28838     28840     28839     28840     28841     28842     28841     28843
     28842     28843     28844     28845     28844     28846     28845     28846
     28847     28848     28847     28849     28848     28849     28850     28851
     28850     28852     28851     28852     28853     28854     28853     28855
     28854     28855     28856     28857     28856     28858     28857     28858
     28859     28860     28859     28861     28860     28861     28862     28863
     28862     28864     28863     28864     28865     28866     28865     28867
     28866     28867     28868     28869     28868     28870     28869     28870
     28871     28872     28871     28873     28872     28873     28874     28875
     28874     28876     28875     28876     28877     28878     28877     28879
     28878     28879     28880     28881     28880     28882     28881     28882
     28883     28884     28883     28885     28884     28885     28886     28887
     28886     28888     28887     28888     28889     28890     28889     28891
     28890     28891     28892     28893     28892     28894     28893     28894
     28895     28896     28895     28897     28896     28897     28898     28899
     28898     28900     28899     28900     28901     28902     28901     28903
     28902     28903     28904     28905     28904     28906     28905     28906
     28907     28908     28907     28909     28908     28909     28910     28911
     28910     28912     28911     28912     28913     28914     28913     28915
     28914     28915     28916     28917     28916     28918     28917     28918
     28919     28920     28919     28921     28920     28921     28922     28923
     28922     28924     28923     28924     28925     28926     28925     28927
     28926     28927     28928     28929     28928     28930     28929     28930
     28931     28932     28931     28933     28932     28933     28934     28935
     28934     28936     28935     28936     28937     28938     28937     28939
     28938     28939     28940     28941     28940     28942     28941     28942
     28943     28944     28943     28945     28944     28945     28946     28947
     28946     28948     28947     28948     28949     28950     28949     28951
     28950     28951     28952     28953     28952     28954     28953     28954
     28955     28956     28955     28957     28956     28957     28958     28959
     28958     28960     28959     28960     28961     28962     28961     28963
     28962     28963     28964     28965     28964     28966     28965     28966
     28967     28968     28967     28969     28968     28969     28970     28971
     28970     28972     28971     28972     28973     28974     28973     28975
     28974     28975     28976     28977     28976     28978     28977     28978
     28979     28980     28979     28981     28980     28981     28982     28983
     28982     28984     28983     28984     28985     28986     28985     28987
     28986     28987     28988     28989     28988     28990     28989     28990
     28991     28992     28991     28993     28992     28993     28994     28995
     28994     28996     28995     28996     28997     28998     28997     28999
     28998     28999     29000     29001     29000     29002     29001     29002
     29003     29004     29003     29005     29004     29005     29006     29007
     29006     29008     29007     29008     29009     29010     29009     29011
     29010     29011     29012     29013     29012     29014     29013     29014
     29015     29016     29015     29017     29016     29017     29018     29019
     29018     29020     29019     29020     29021     29022     29021     29023
     29022     29023     29024     29025     29024     29026     29025     29026
     29027     29028     29027     29029     29028     29029     29030     29031
     29030     29032     29031     29032     29033     29034     29033     29035
     29034     29035     29036     29037     29036     29038     29037     29038
     29039     29040     29039     29041     29040     29041     29042     29043
     29042     29044     29043     29044     29045     29046     29045     29047
     29046     29047     29048     29049     29048     29050     29049     29050
     29051     29052     29051     29053     29052     29053     29054     29055
     29054     29056     29055     29056     29057     29058     29057     29059
     29058     29059     29060     29061     29060     29062     29061     29062
     29063     29064     29063     29065     29064     29065     29066     29067
     29066     29068     29067     29068     29069     29070     29069     29071
     29070     29071     29072     29073     29072     29074     29073     29074
     29075     29076     29075     29077     29076     29077     29078     29079
     29078     29080     29079     29080     29081     29082     29081     29083
     29082     29083     29084     29085     29084     29086     29085     29086
     29087     29088     29087     29089     29088     29089     29090     29091
     29090     29092     29091     29092     29093     29094     29093     29095
     29094     29095     29096     29097     29096     29098     29097     29098
     29099     29100     29099     29101     29100     29101     29102     29103
     29102     29104     29103     29104     29105     29106     29105     29107
     29106     29107     29108     29109     29108     29110     29109     29110
     29111     29112     29111     29113     29112     29113     29114     29115
     29114     29116     29115     29116     29117     29118     29117     29119
     29118     29119     29120     29121     29120     29122     29121     29122
     29123     29124     29123     29125     29124     29125     29126     29127
     29126     29128     29127     29128     29129     29130     29129     29131
     29130     29131     29132     29133     29132     29134     29133     29134
     29135     29136     29135     29137     29136     29137     29138     29139
     29138     29140     29139     29140     29141     29142     29141     29143
     29142     29143     29144     29145     29144     29146     29145     29146
     29147     29148     29147     29149     29148     29149     29150     29151
     29150     29152     29151     29152     29153     29154     29153     29155
     29154     29155     29156     29157     29156     29158     29157     29158
     29159     29160     29159     29161     29160     29161     29162     29163
     29162     29164     29163     29164     29165     29166     29165     29167
     29166     29167     29168     29169     29168     29170     29169     29170
     29171     29172     29171     29173     29172     29173     29174     29175
     29174     29176     29175     29176     29177     29178     29177     29179
     29178     29179     29180     29181     29180     29182     29181     29182
     29183     29184     29183     29185     29184     29185     29186     29187
     29186     29188     29187     29188     29189     29190     29189     29191
     29190     29191     29192     29193     29192     29194     29193     29194
     29195     29196     29195     29197     29196     29197     29198     29199
     29198     29200     29199     29200     29201     29202     29201     29203
     29202     29203     29204     29205     29204     29206     29205     29206
     29207     29208     29207     29209     29208     29209     29210     29211
     29210     29212     29211     29212     29213     29214     29213     29215
     29214     29215     29216     29217     29216     29218     29217     29218
     29219     29220     29219     29221     29220     29221     29222     29223
     29222     29224     29223     29224     29225     29226     29225     29227
     29226     29227     29228     29229     29228     29230     29229     29230
     29231     29232     29231     29233     29232     29233     29234     29235
     29234     29236     29235     29236     29237     29238     29237     29239
     29238     29239     29240     29241     29240     29242     29241     29242
     29243     29244     29243     29245     29244     29245     29246     29247
     29246     29248     29247     29248     29249     29250     29249     29251
     29250     29251     29252     29253     29252     29254     29253     29254
     29255     29256     29255     29257     29256     29257     29258     29259
     29258     29260     29259     29260     29261     29262     29261     29263
     29262     29263     29264     29265     29264     29266     29265     29266
     29267     29268     29267     29269     29268     29269     29270     29271
     29270     29272     29271     29272     29273     29274     29273     29275
     29274     29275     29276     29277     29276     29278     29277     29278
     29279     29280     29279     29281     29280     29281     29282     29283
     29282     29284     29283     29284     29285     29286     29285     29287
     29286     29287     29288     29289     29288     29290     29289     29290
     29291     29292     29291     29293     29292     29293     29294     29295
     29294     29296     29295     29296     29297     29298     29297     29299
     29298     29299     29300     29301     29300     29302     29301     29302
     29303     29304     29303     29305     29304     29305     29306     29307
     29306     29308     29307     29308     29309     29310     29309     29311
     29310     29311     29312     29313     29312     29314     29313     29314
     29315     29316     29315     29317     29316     29317     29318     29319
     29318     29320     29319     29320     29321     29322     29321     29323
     29322     29323     29324     29325     29324     29326     29325     29326
     29327     29328     29327     29329     29328     29329     29330     29331
     29330     29332     29331     29332     29333     29334     29333     29335
     29334     29335     29336     29337     29336     29338     29337     29338
     29339     29340     29339     29341     29340     29341     29342     29343
     29342     29344     29343     29344     29345     29346     29345     29347
     29346     29347     29348     29349     29348     29350     29349     29350
     29351     29352     29351     29353     29352     29353     29354     29355
     29354     29356     29355     29356     29357     29358     29357     29359
     29358     29359     29360     29361     29360     29362     29361     29362
     29363     29364     29363     29365     29364     29365     29366     29367
     29366     29368     29367     29368     29369     29370     29369     29371
     29370     29371     29372     29373     29372     29374     29373     29374
     29375     29376     29375     29377     29376     29377     29378     29379
     29378     29380     29379     29380     29381     29382     29381     29383
     29382     29383     29384     29385     29384     29386     29385     29386
     29387     29388     29387     29389     29388     29389     29390     29391
     29390     29392     29391     29392     29393     29394     29393     29395
     29394     29395     29396     29397     29396     29398     29397     29398
     29399     29400     29399     29401     29400     29401     29402     29403
     29402     29404     29403     29404     29405     29406     29405     29407
     29406     29407     29408     29409     29408     29410     29409     29410
     29411     29412     29411     29413     29412     29413     29414     29415
     29414     29416     29415     29416     29417     29418     29417     29419
     29418     29419     29420     29421     29420     29422     29421     29422
     29423     29424     29423     29425     29424     29425     29426     29427
     29426     29428     29427     29428     29429     29430     29429     29431
     29430     29431     29432     29433     29432     29434     29433     29434
     29435     29436     29435     29437     29436     29437     29438     29439
     29438     29440     29439     29440     29441     29442     29441     29443
     29442     29443     29444     29445     29444     29446     29445     29446
     29447     29448     29447     29449     29448     29449     29450     29451
     29450     29452     29451     29452     29453     29454     29453     29455
     29454     29455     29456     29457     29456     29458     29457     29458
     29459     29460     29459     29461     29460     29461     29462     29463
     29462     29464     29463     29464     29465     29466     29465     29467
     29466     29467     29468     29469     29468     29470     29469     29470
     29471     29472     29471     29473     29472     29473     29474     29475
     29474     29476     29475     29476     29477     29478     29477     29479
     29478     29479     29480     29481     29480     29482     29481     29482
     29483     29484     29483     29485     29484     29485     29486     29487
     29486     29488     29487     29488     29489     29490     29489     29491
     29490     29491     29492     29493     29492     29494     29493     29494
     29495     29496     29495     29497     29496     29497     29498     29499
     29498     29500     29499     29500     29501     29502     29501     29503
     29502     29503     29504     29505     29504     29506     29505     29506
     29507     29508     29507     29509     29508     29509     29510     29511
     29510     29512     29511     29512     29513     29514     29513     29515
     29514     29515     29516     29517     29516     29518     29517     29518
     29519     29520     29519     29521     29520     29521     29522     29523
     29522     29524     29523     29524     29525     29526     29525     29527
     29526     29527     29528     29529     29528     29530     29529     29530
     29531     29532     29531     29533     29532     29533     29534     29535
     29534     29536     29535     29536     29537     29538     29537     29539
     29538     29539     29540     29541     29540     29542     29541     29542
     29543     29544     29543     29545     29544     29545     29546     29547
     29546     29548     29547     29548     29549     29550     29549     29551
     29550     29551     29552     29553     29552     29554     29553     29554
     29555     29556     29555     29557     29556     29557     29558     29559
     29558     29560     29559     29560     29561     29562     29561     29563
     29562     29563     29564     29565     29564     29566     29565     29566
     29567     29568     29567     29569     29568     29569     29570     29571
     29570     29572     29571     29572     29573     29574     29573     29575
     29574     29575     29576     29577     29576     29578     29577     29578
     29579     29580     29579     29581     29580     29581     29582     29583
     29582     29584     29583     29584     29585     29586     29585     29587
     29586     29587     29588     29589     29588     29590     29589     29590
     29591     29592     29591     29593     29592     29593     29594     29595
     29594     29596     29595     29596     29597     29598     29597     29599
     29598     29599     29600     29601     29600     29602     29601     29602
     29603     29604     29603     29605     29604     29605     29606     29607
     29606     29608     29607     29608     29609     29610     29609     29611
     29610     29611     29612     29613     29612     29614     29613     29614
     29615     29616     29615     29617     29616     29617     29618     29619
     29618     29620     29619     29620     29621     29622     29621     29623
     29622     29623     29624     29625     29624     29626     29625     29626
     29627     29628     29627     29629     29628     29629     29630     29631
     29630     29632     29631     29632     29633     29634     29633     29635
     29634     29635     29636     29637     29636     29638     29637     29638
     29639     29640     29639     29641     29640     29641     29642     29643
     29642     29644     29643     29644     29645     29646     29645     29647
     29646     29647     29648     29649     29648     29650     29649     29650
     29651     29652     29651     29653     29652     29653     29654     29655
     29654     29656     29655     29656     29657     29658     29657     29659
     29658     29659     29660     29661     29660     29662     29661     29662
     29663     29664     29663     29665     29664     29665     29666     29667
     29666     29668     29667     29668     29669     29670     29669     29671
     29670     29671     29672     29673     29672     29674     29673     29674
     29675     29676     29675     29677     29676     29677     29678     29679
     29678     29680     29679     29680     29681     29682     29681     29683
     29682     29683     29684     29685     29684     29686     29685     29686
     29687     29688     29687     29689     29688     29689     29690     29691
     29690     29692     29691     29692     29693     29694     29693     29695
     29694     29695     29696     29697     29696     29698     29697     29698
     29699     29700     29699     29701     29700     29701     29702     29703
     29702     29704     29703     29704     29705     29706     29705     29707
     29706     29707     29708     29709     29708     29710     29709     29710
     29711     29712     29711     29713     29712     29713     29714     29715
     29714     29716     29715     29716     29717     29718     29717     29719
     29718     29719     29720     29721     29720     29722     29721     29722
     29723     29724     29723     29725     29724     29725     29726     29727
     29726     29728     29727     29728     29729     29730     29729     29731
     29730     29731     29732     29733     29732     29734     29733     29734
     29735     29736     29735     29737     29736     29737     29738     29739
     29738     29740     29739     29740     29741     29742     29741     29743
     29742     29743     29744     29745     29744     29746     29745     29746
     29747     29748     29747     29749     29748     29749     29750     29751
     29750     29752     29751     29752     29753     29754     29753     29755
     29754     29755     29756     29757     29756     29758     29757     29758
     29759     29760     29759     29761     29760     29761     29762     29763
     29762     29764     29763     29764     29765     29766     29765     29767
     29766     29767     29768     29769     29768     29770     29769     29770
     29771     29772     29771     29773     29772     29773     29774     29775
     29774     29776     29775     29776     29777     29778     29777     29779
     29778     29779     29780     29781     29780     29782     29781     29782
     29783     29784     29783     29785     29784     29785     29786     29787
     29786     29788     29787     29788     29789     29790     29789     29791
     29790     29791     29792     29793     29792     29794     29793     29794
     29795     29796     29795     29797     29796     29797     29798     29799
     29798     29800     29799     29800     29801     29802     29801     29803
     29802     29803     29804     29805     29804     29806     29805     29806
     29807     29808     29807     29809     29808     29809     29810     29811
     29810     29812     29811     29812     29813     29814     29813     29815
     29814     29815     29816     29817     29816     29818     29817     29818
     29819     29820     29819     29821     29820     29821     29822     29823
     29822     29824     29823     29824     29825     29826     29825     29827
     29826     29827     29828     29829     29828     29830     29829     29830
     29831     29832     29831     29833     29832     29833     29834     29835
     29834     29836     29835     29836     29837     29838     29837     29839
     29838     29839     29840     29841     29840     29842     29841     29842
     29843     29844     29843     29845     29844     29845     29846     29847
     29846     29848     29847     29848     29849     29850     29849     29851
     29850     29851     29852     29853     29852     29854     29853     29854
     29855     29856     29855     29857     29856     29857     29858     29859
     29858     29860     29859     29860     29861     29862     29861     29863
     29862     29863     29864     29865     29864     29866     29865     29866
     29867     29868     29867     29869     29868     29869     29870     29871
     29870     29872     29871     29872     29873     29874     29873     29875
     29874     29875     29876     29877     29876     29878     29877     29878
     29879     29880     29879     29881     29880     29881     29882     29883
     29882     29884     29883     29884     29885     29886     29885     29887
     29886     29887     29888     29889     29888     29890     29889     29890
     29891     29892     29891     29893     29892     29893     29894     29895
     29894     29896     29895     29896     29897     29898     29897     29899
     29898     29899     29900     29901     29900     29902     29901     29902
     29903     29904     29903     29905     29904     29905     29906     29907
     29906     29908     29907     29908     29909     29910     29909     29911
     29910     29911     29912     29913     29912     29914     29913     29914
     29915     29916     29915     29917     29916     29917     29918     29919
     29918     29920     29919     29920     29921     29922     29921     29923
     29922     29923     29924     29925     29924     29926     29925     29926
     29927     29928     29927     29929     29928     29929     29930     29931
     29930     29932     29931     29932     29933     29934     29933     29935
     29934     29935     29936     29937     29936     29938     29937     29938
     29939     29940     29939     29941     29940     29941     29942     29943
     29942     29944     29943     29944     29945     29946     29945     29947
     29946     29947     29948     29949     29948     29950     29949     29950
     29951     29952     29951     29953     29952     29953     29954     29955
     29954     29956     29955     29956     29957     29958     29957     29959
     29958     29959     29960     29961     29960     29962     29961     29962
     29963     29964     29963     29965     29964     29965     29966     29967
     29966     29968     29967     29968     29969     29970     29969     29971
     29970     29971     29972     29973     29972     29974     29973     29974
     29975     29976     29975     29977     29976     29977     29978     29979
     29978     29980     29979     29980     29981     29982     29981     29983
     29982     29983     29984     29985     29984     29986     29985     29986
     29987     29988     29987     29989     29988     29989     29990     29991
     29990     29992     29991     29992     29993     29994     29993     29995
     29994     29995     29996     29997     29996     29998     29997     29998
     29999     30000     29999     30001     30000     30001     30002     30003
     30002     30004     30003     30004     30005     30006     30005     30007
     30006     30007     30008     30009     30008     30010     30009     30010
     30011     30012     30011     30013     30012     30013     30014     30015
     30014     30016     30015     30016     30017     30018     30017     30019
     30018     30019     30020     30021     30020     30022     30021     30022
     30023     30024     30023     30025     30024     30025     30026     30027
     30026     30028     30027     30028     30029     30030     30029     30031
     30030     30031     30032     30033     30032     30034     30033     30034
     30035     30036     30035     30037     30036     30037     30038     30039
     30038     30040     30039     30040     30041     30042     30041     30043
     30042     30043     30044     30045     30044     30046     30045     30046
     30047     30048     30047     30049     30048     30049     30050     30051
     30050     30052     30051     30052     30053     30054     30053     30055
     30054     30055     30056     30057     30056     30058     30057     30058
     30059     30060     30059     30061     30060     30061     30062     30063
     30062     30064     30063     30064     30065     30066     30065     30067
     30066     30067     30068     30069     30068     30070     30069     30070
     30071     30072     30071     30073     30072     30073     30074     30075
     30074     30076     30075     30076     30077     30078     30077     30079
     30078     30079     30080     30081     30080     30082     30081     30082
     30083     30084     30083     30085     30084     30085     30086     30087
     30086     30088     30087     30088     30089     30090     30089     30091
     30090     30091     30092     30093     30092     30094     30093     30094
     30095     30096     30095     30097     30096     30097     30098     30099
     30098     30100     30099     30100     30101     30102     30101     30103
     30102     30103     30104     30105     30104     30106     30105     30106
     30107     30108     30107     30109     30108     30109     30110     30111
     30110     30112     30111     30112     30113     30114     30113     30115
     30114     30115     30116     30117     30116     30118     30117     30118
     30119     30120     30119     30121     30120     30121     30122     30123
     30122     30124     30123     30124     30125     30126     30125     30127
     30126     30127     30128     30129     30128     30130     30129     30130
     30131     30132     30131     30133     30132     30133     30134     30135
     30134     30136     30135     30136     30137     30138     30137     30139
     30138     30139     30140     30141     30140     30142     30141     30142
     30143     30144     30143     30145     30144     30145     30146     30147
     30146     30148     30147     30148     30149     30150     30149     30151
     30150     30151     30152     30153     30152     30154     30153     30154
     30155     30156     30155     30157     30156     30157     30158     30159
     30158     30160     30159     30160     30161     30162     30161     30163
     30162     30163     30164     30165     30164     30166     30165     30166
     30167     30168     30167     30169     30168     30169     30170     30171
     30170     30172     30171     30172     30173     30174     30173     30175
     30174     30175     30176     30177     30176     30178     30177     30178
     30179     30180     30179     30181     30180     30181     30182     30183
     30182     30184     30183     30184     30185     30186     30185     30187
     30186     30187     30188     30189     30188     30190     30189     30190
     30191     30192     30191     30193     30192     30193     30194     30195
     30194     30196     30195     30196     30197     30198     30197     30199
     30198     30199     30200     30201     30200     30202     30201     30202
     30203     30204     30203     30205     30204     30205     30206     30207
     30206     30208     30207     30208     30209     30210     30209     30211
     30210     30211     30212     30213     30212     30214     30213     30214
     30215     30216     30215     30217     30216     30217     30218     30219
     30218     30220     30219     30220     30221     30222     30221     30223
     30222     30223     30224     30225     30224     30226     30225     30226
     30227     30228     30227     30229     30228     30229     30230     30231
     30230     30232     30231     30232     30233     30234     30233     30235
     30234     30235     30236     30237     30236     30238     30237     30238
     30239     30240     30239     30241     30240     30241     30242     30243
     30242     30244     30243     30244     30245     30246     30245     30247
     30246     30247     30248     30249     30248     30250     30249     30250
     30251     30252     30251     30253     30252     30253     30254     30255
     30254     30256     30255     30256     30257     30258     30257     30259
     30258     30259     30260     30261     30260     30262     30261     30262
     30263     30264     30263     30265     30264     30265     30266     30267
     30266     30268     30267     30268     30269     30270     30269     30271
     30270     30271     30272     30273     30272     30274     30273     30274
     30275     30276     30275     30277     30276     30277     30278     30279
     30278     30280     30279     30280     30281     30282     30281     30283
     30282     30283     30284     30285     30284     30286     30285     30286
     30287     30288     30287     30289     30288     30289     30290     30291
     30290     30292     30291     30292     30293     30294     30293     30295
     30294     30295     30296     30297     30296     30298     30297     30298
     30299     30300     30299     30301     30300     30301     30302     30303
     30302     30304     30303     30304     30305     30306     30305     30307
     30306     30307     30308     30309     30308     30310     30309     30310
     30311     30312     30311     30313     30312     30313     30314     30315
     30314     30316     30315     30316     30317     30318     30317     30319
     30318     30319     30320     30321     30320     30322     30321     30322
     30323     30324     30323     30325     30324     30325     30326     30327
     30326     30328     30327     30328     30329     30330     30329     30331
     30330     30331     30332     30333     30332     30334     30333     30334
     30335     30336     30335     30337     30336     30337     30338     30339
     30338     30340     30339     30340     30341     30342     30341     30343
     30342     30343     30344     30345     30344     30346     30345     30346
     30347     30348     30347     30349     30348     30349     30350     30351
     30350     30352     30351     30352     30353     30354     30353     30355
     30354     30355     30356     30357     30356     30358     30357     30358
     30359     30360     30359     30361     30360     30361     30362     30363
     30362     30364     30363     30364     30365     30366     30365     30367
     30366     30367     30368     30369     30368     30370     30369     30370
     30371     30372     30371     30373     30372     30373     30374     30375
     30374     30376     30375     30376     30377     30378     30377     30379
     30378     30379     30380     30381     30380     30382     30381     30382
     30383     30384     30383     30385     30384     30385     30386     30387
     30386     30388     30387     30388     30389     30390     30389     30391
     30390     30391     30392     30393     30392     30394     30393     30394
     30395     30396     30395     30397     30396     30397     30398     30399
     30398     30400     30399     30400     30401     30402     30401     30403
     30402     30403     30404     30405     30404     30406     30405     30406
     30407     30408     30407     30409     30408     30409     30410     30411
     30410     30412     30411     30412     30413     30414     30413     30415
     30414     30415     30416     30417     30416     30418     30417     30418
     30419     30420     30419     30421     30420     30421     30422     30423
     30422     30424     30423     30424     30425     30426     30425     30427
     30426     30427     30428     30429     30428     30430     30429     30430
     30431     30432     30431     30433     30432     30433     30434     30435
     30434     30436     30435     30436     30437     30438     30437     30439
     30438     30439     30440     30441     30440     30442     30441     30442
     30443     30444     30443     30445     30444     30445     30446     30447
     30446     30448     30447     30448     30449     30450     30449     30451
     30450     30451     30452     30453     30452     30454     30453     30454
     30455     30456     30455     30457     30456     30457     30458     30459
     30458     30460     30459     30460     30461     30462     30461     30463
     30462     30463     30464     30465     30464     30466     30465     30466
     30467     30468     30467     30469     30468     30469     30470     30471
     30470     30472     30471     30472     30473     30474     30473     30475
     30474     30475     30476     30477     30476     30478     30477     30478
     30479     30480     30479     30481     30480     30481     30482     30483
     30482     30484     30483     30484     30485     30486     30485     30487
     30486     30487     30488     30489     30488     30490     30489     30490
     30491     30492     30491     30493     30492     30493     30494     30495
     30494     30496     30495     30496     30497     30498     30497     30499
     30498     30499     30500     30501     30500     30502     30501     30502
     30503     30504     30503     30505     30504     30505     30506     30507
     30506     30508     30507     30508     30509     30510     30509     30511
     30510     30511     30512     30513     30512     30514     30513     30514
     30515     30516     30515     30517     30516     30517     30518     30519
     30518     30520     30519     30520     30521     30522     30521     30523
     30522     30523     30524     30525     30524     30526     30525     30526
     30527     30528     30527     30529     30528     30529     30530     30531
     30530     30532     30531     30532     30533     30534     30533     30535
     30534     30535     30536     30537     30536     30538     30537     30538
     30539     30540     30539     30541     30540     30541     30542     30543
     30542     30544     30543     30544     30545     30546     30545     30547
     30546     30547     30548     30549     30548     30550     30549     30550
     30551     30552     30551     30553     30552     30553     30554     30555
     30554     30556     30555     30556     30557     30558     30557     30559
     30558     30559     30560     30561     30560     30562     30561     30562
     30563     30564     30563     30565     30564     30565     30566     30567
     30566     30568     30567     30568     30569     30570     30569     30571
     30570     30571     30572     30573     30572     30574     30573     30574
     30575     30576     30575     30577     30576     30577     30578     30579
     30578     30580     30579     30580     30581     30582     30581     30583
     30582     30583     30584     30585     30584     30586     30585     30586
     30587     30588     30587     30589     30588     30589     30590     30591
     30590     30592     30591     30592     30593     30594     30593     30595
     30594     30595     30596     30597     30596     30598     30597     30598
     30599     30600     30599     30601     30600     30601     30602     30603
     30602     30604     30603     30604     30605     30606     30605     30607
     30606     30607     30608     30609     30608     30610     30609     30610
     30611     30612     30611     30613     30612     30613     30614     30615
     30614     30616     30615     30616     30617     30618     30617     30619
     30618     30619     30620     30621     30620     30622     30621     30622
     30623     30624     30623     30625     30624     30625     30626     30627
     30626     30628     30627     30628     30629     30630     30629     30631
     30630     30631     30632     30633     30632     30634     30633     30634
     30635     30636     30635     30637     30636     30637     30638     30639
     30638     30640     30639     30640     30641     30642     30641     30643
     30642     30643     30644     30645     30644     30646     30645     30646
     30647     30648     30647     30649     30648     30649     30650     30651
     30650     30652     30651     30652     30653     30654     30653     30655
     30654     30655     30656     30657     30656     30658     30657     30658
     30659     30660     30659     30661     30660     30661     30662     30663
     30662     30664     30663     30664     30665     30666     30665     30667
     30666     30667     30668     30669     30668     30670     30669     30670
     30671     30672     30671     30673     30672     30673     30674     30675
     30674     30676     30675     30676     30677     30678     30677     30679
     30678     30679     30680     30681     30680     30682     30681     30682
     30683     30684     30683     30685     30684     30685     30686     30687
     30686     30688     30687     30688     30689     30690     30689     30691
     30690     30691     30692     30693     30692     30694     30693     30694
     30695     30696     30695     30697     30696     30697     30698     30699
     30698     30700     30699     30700     30701     30702     30701     30703
     30702     30703     30704     30705     30704     30706     30705     30706
     30707     30708     30707     30709     30708     30709     30710     30711
     30710     30712     30711     30712     30713     30714     30713     30715
     30714     30715     30716     30717     30716     30718     30717     30718
     30719     30720     30719     30721     30720     30721     30722     30723
     30722     30724     30723     30724     30725     30726     30725     30727
     30726     30727     30728     30729     30728     30730     30729     30730
     30731     30732     30731     30733     30732     30733     30734     30735
     30734     30736     30735     30736     30737     30738     30737     30739
     30738     30739     30740     30741     30740     30742     30741     30742
     30743     30744     30743     30745     30744     30745     30746     30747
     30746     30748     30747     30748     30749     30750     30749     30751
     30750     30751     30752     30753     30752     30754     30753     30754
     30755     30756     30755     30757     30756     30757     30758     30759
     30758     30760     30759     30760     30761     30762     30761     30763
     30762     30763     30764     30765     30764     30766     30765     30766
     30767     30768     30767     30769     30768     30769     30770     30771
     30770     30772     30771     30772     30773     30774     30773     30775
     30774     30775     30776     30777     30776     30778     30777     30778
     30779     30780     30779     30781     30780     30781     30782     30783
     30782     30784     30783     30784     30785     30786     30785     30787
     30786     30787     30788     30789     30788     30790     30789     30790
     30791     30792     30791     30793     30792     30793     30794     30795
     30794     30796     30795     30796     30797     30798     30797     30799
     30798     30799     30800     30801     30800     30802     30801     30802
     30803     30804     30803     30805     30804     30805     30806     30807
     30806     30808     30807     30808     30809     30810     30809     30811
     30810     30811     30812     30813     30812     30814     30813     30814
     30815     30816     30815     30817     30816     30817     30818     30819
     30818     30820     30819     30820     30821     30822     30821     30823
     30822     30823     30824     30825     30824     30826     30825     30826
     30827     30828     30827     30829     30828     30829     30830     30831
     30830     30832     30831     30832     30833     30834     30833     30835
     30834     30835     30836     30837     30836     30838     30837     30838
     30839     30840     30839     30841     30840     30841     30842     30843
     30842     30844     30843     30844     30845     30846     30845     30847
     30846     30847     30848     30849     30848     30850     30849     30850
     30851     30852     30851     30853     30852     30853     30854     30855
     30854     30856     30855     30856     30857     30858     30857     30859
     30858     30859     30860     30861     30860     30862     30861     30862
     30863     30864     30863     30865     30864     30865     30866     30867
     30866     30868     30867     30868     30869     30870     30869     30871
     30870     30871     30872     30873     30872     30874     30873     30874
     30875     30876     30875     30877     30876     30877     30878     30879
     30878     30880     30879     30880     30881     30882     30881     30883
     30882     30883     30884     30885     30884     30886     30885     30886
     30887     30888     30887     30889     30888     30889     30890     30891
     30890     30892     30891     30892     30893     30894     30893     30895
     30894     30895     30896     30897     30896     30898     30897     30898
     30899     30900     30899     30901     30900     30901     30902     30903
     30902     30904     30903     30904     30905     30906     30905     30907
     30906     30907     30908     30909     30908     30910     30909     30910
     30911     30912     30911     30913     30912     30913     30914     30915
     30914     30916     30915     30916     30917     30918     30917     30919
     30918     30919     30920     30921     30920     30922     30921     30922
     30923     30924     30923     30925     30924     30925     30926     30927
     30926     30928     30927     30928     30929     30930     30929     30931
     30930     30931     30932     30933     30932     30934     30933     30934
     30935     30936     30935     30937     30936     30937     30938     30939
     30938     30940     30939     30940     30941     30942     30941     30943
     30942     30943     30944     30945     30944     30946     30945     30946
     30947     30948     30947     30949     30948     30949     30950     30951
     30950     30952     30951     30952     30953     30954     30953     30955
     30954     30955     30956     30957     30956     30958     30957     30958
     30959     30960     30959     30961     30960     30961     30962     30963
     30962     30964     30963     30964     30965     30966     30965     30967
     30966     30967     30968     30969     30968     30970     30969     30970
     30971     30972     30971     30973     30972     30973     30974     30975
     30974     30976     30975     30976     30977     30978     30977     30979
     30978     30979     30980     30981     30980     30982     30981     30982
     30983     30984     30983     30985     30984     30985     30986     30987
     30986     30988     30987     30988     30989     30990     30989     30991
     30990     30991     30992     30993     30992     30994     30993     30994
     30995     30996     30995     30997     30996     30997     30998     30999
     30998     31000     30999     31000     31001     31002     31001     31003
     31002     31003     31004     31005     31004     31006     31005     31006
     31007     31008     31007     31009     31008     31009     31010     31011
     31010     31012     31011     31012     31013     31014     31013     31015
     31014     31015     31016     31017     31016     31018     31017     31018
     31019     31020     31019     31021     31020     31021     31022     31023
     31022     31024     31023     31024     31025     31026     31025     31027
     31026     31027     31028     31029     31028     31030     31029     31030
     31031     31032     31031     31033     31032     31033     31034     31035
     31034     31036     31035     31036     31037     31038     31037     31039
     31038     31039     31040     31041     31040     31042     31041     31042
     31043     31044     31043     31045     31044     31045     31046     31047
     31046     31048     31047     31048     31049     31050     31049     31051
     31050     31051     31052     31053     31052     31054     31053     31054
     31055     31056     31055     31057     31056     31057     31058     31059
     31058     31060     31059     31060     31061     31062     31061     31063
     31062     31063     31064     31065     31064     31066     31065     31066
     31067     31068     31067     31069     31068     31069     31070     31071
     31070     31072     31071     31072     31073     31074     31073     31075
     31074     31075     31076     31077     31076     31078     31077     31078
     31079     31080     31079     31081     31080     31081     31082     31083
     31082     31084     31083     31084     31085     31086     31085     31087
     31086     31087     31088     31089     31088     31090     31089     31090
     31091     31092     31091     31093     31092     31093     31094     31095
     31094     31096     31095     31096     31097     31098     31097     31099
     31098     31099     31100     31101     31100     31102     31101     31102
     31103     31104     31103     31105     31104     31105     31106     31107
     31106     31108     31107     31108     31109     31110     31109     31111
     31110     31111     31112     31113     31112     31114     31113     31114
     31115     31116     31115     31117     31116     31117     31118     31119
     31118     31120     31119     31120     31121     31122     31121     31123
     31122     31123     31124     31125     31124     31126     31125     31126
     31127     31128     31127     31129     31128     31129     31130     31131
     31130     31132     31131     31132     31133     31134     31133     31135
     31134     31135     31136     31137     31136     31138     31137     31138
     31139     31140     31139     31141     31140     31141     31142     31143
     31142     31144     31143     31144     31145     31146     31145     31147
     31146     31147     31148     31149     31148     31150     31149     31150
     31151     31152     31151     31153     31152     31153     31154     31155
     31154     31156     31155     31156     31157     31158     31157     31159
     31158     31159     31160     31161     31160     31162     31161     31162
     31163     31164     31163     31165     31164     31165     31166     31167
     31166     31168     31167     31168     31169     31170     31169     31171
     31170     31171     31172     31173     31172     31174     31173     31174
     31175     31176     31175     31177     31176     31177     31178     31179
     31178     31180     31179     31180     31181     31182     31181     31183
     31182     31183     31184     31185     31184     31186     31185     31186
     31187     31188     31187     31189     31188     31189     31190     31191
     31190     31192     31191     31192     31193     31194     31193     31195
     31194     31195     31196     31197     31196     31198     31197     31198
     31199     31200     31199     31201     31200     31201     31202     31203
     31202     31204     31203     31204     31205     31206     31205     31207
     31206     31207     31208     31209     31208     31210     31209     31210
     31211     31212     31211     31213     31212     31213     31214     31215
     31214     31216     31215     31216     31217     31218     31217     31219
     31218     31219     31220     31221     31220     31222     31221     31222
     31223     31224     31223     31225     31224     31225     31226     31227
     31226     31228     31227     31228     31229     31230     31229     31231
     31230     31231     31232     31233     31232     31234     31233     31234
     31235     31236     31235     31237     31236     31237     31238     31239
     31238     31240     31239     31240     31241     31242     31241     31243
     31242     31243     31244     31245     31244     31246     31245     31246
     31247     31248     31247     31249     31248     31249     31250     31251
     31250     31252     31251     31252     31253     31254     31253     31255
     31254     31255     31256     31257     31256     31258     31257     31258
     31259     31260     31259     31261     31260     31261     31262     31263
     31262     31264     31263     31264     31265     31266     31265     31267
     31266     31267     31268     31269     31268     31270     31269     31270
     31271     31272     31271     31273     31272     31273     31274     31275
     31274     31276     31275     31276     31277     31278     31277     31279
     31278     31279     31280     31281     31280     31282     31281     31282
     31283     31284     31283     31285     31284     31285     31286     31287
     31286     31288     31287     31288     31289     31290     31289     31291
     31290     31291     31292     31293     31292     31294     31293     31294
     31295     31296     31295     31297     31296     31297     31298     31299
     31298     31300     31299     31300     31301     31302     31301     31303
     31302     31303     31304     31305     31304     31306     31305     31306
     31307     31308     31307     31309     31308     31309     31310     31311
     31310     31312     31311     31312     31313     31314     31313     31315
     31314     31315     31316     31317     31316     31318     31317     31318
     31319     31320     31319     31321     31320     31321     31322     31323
     31322     31324     31323     31324     31325     31326     31325     31327
     31326     31327     31328     31329     31328     31330     31329     31330
     31331     31332     31331     31333     31332     31333     31334     31335
     31334     31336     31335     31336     31337     31338     31337     31339
     31338     31339     31340     31341     31340     31342     31341     31342
     31343     31344     31343     31345     31344     31345     31346     31347
     31346     31348     31347     31348     31349     31350     31349     31351
     31350     31351     31352     31353     31352     31354     31353     31354
     31355     31356     31355     31357     31356     31357     31358     31359
     31358     31360     31359     31360     31361     31362     31361     31363
     31362     31363     31364     31365     31364     31366     31365     31366
     31367     31368     31367     31369     31368     31369     31370     31371
     31370     31372     31371     31372     31373     31374     31373     31375
     31374     31375     31376     31377     31376     31378     31377     31378
     31379     31380     31379     31381     31380     31381     31382     31383
     31382     31384     31383     31384     31385     31386     31385     31387
     31386     31387     31388     31389     31388     31390     31389     31390
     31391     31392     31391     31393     31392     31393     31394     31395
     31394     31396     31395     31396     31397     31398     31397     31399
     31398     31399     31400     31401     31400     31402     31401     31402
     31403     31404     31403     31405     31404     31405     31406     31407
     31406     31408     31407     31408     31409     31410     31409     31411
     31410     31411     31412     31413     31412     31414     31413     31414
     31415     31416     31415     31417     31416     31417     31418     31419
     31418     31420     31419     31420     31421     31422     31421     31423
     31422     31423     31424     31425     31424     31426     31425     31426
     31427     31428     31427     31429     31428     31429     31430     31431
     31430     31432     31431     31432     31433     31434     31433     31435
     31434     31435     31436     31437     31436     31438     31437     31438
     31439     31440     31439     31441     31440     31441     31442     31443
     31442     31444     31443     31444     31445     31446     31445     31447
     31446     31447     31448     31449     31448     31450     31449     31450
     31451     31452     31451     31453     31452     31453     31454     31455
     31454     31456     31455     31456     31457     31458     31457     31459
     31458     31459     31460     31461     31460     31462     31461     31462
     31463     31464     31463     31465     31464     31465     31466     31467
     31466     31468     31467     31468     31469     31470     31469     31471
     31470     31471     31472     31473     31472     31474     31473     31474
     31475     31476     31475     31477     31476     31477     31478     31479
     31478     31480     31479     31480     31481     31482     31481     31483
     31482     31483     31484     31485     31484     31486     31485     31486
     31487     31488     31487     31489     31488     31489     31490     31491
     31490     31492     31491     31492     31493     31494     31493     31495
     31494     31495     31496     31497     31496     31498     31497     31498
     31499     31500     31499     31501     31500     31501     31502     31503
     31502     31504     31503     31504     31505     31506     31505     31507
     31506     31507     31508     31509     31508     31510     31509     31510
     31511     31512     31511     31513     31512     31513     31514     31515
     31514     31516     31515     31516     31517     31518     31517     31519
     31518     31519     31520     31521     31520     31522     31521     31522
     31523     31524     31523     31525     31524     31525     31526     31527
     31526     31528     31527     31528     31529     31530     31529     31531
     31530     31531     31532     31533     31532     31534     31533     31534
     31535     31536     31535     31537     31536     31537     31538     31539
     31538     31540     31539     31540     31541     31542     31541     31543
     31542     31543     31544     31545     31544     31546     31545     31546
     31547     31548     31547     31549     31548     31549     31550     31551
     31550     31552     31551     31552     31553     31554     31553     31555
     31554     31555     31556     31557     31556     31558     31557     31558
     31559     31560     31559     31561     31560     31561     31562     31563
     31562     31564     31563     31564     31565     31566     31565     31567
     31566     31567     31568     31569     31568     31570     31569     31570
     31571     31572     31571     31573     31572     31573     31574     31575
     31574     31576     31575     31576     31577     31578     31577     31579
     31578     31579     31580     31581     31580     31582     31581     31582
     31583     31584     31583     31585     31584     31585     31586     31587
     31586     31588     31587     31588     31589     31590     31589     31591
     31590     31591     31592     31593     31592     31594     31593     31594
     31595     31596     31595     31597     31596     31597     31598     31599
     31598     31600     31599     31600     31601     31602     31601     31603
     31602     31603     31604     31605     31604     31606     31605     31606
     31607     31608     31607     31609     31608     31609     31610     31611
     31610     31612     31611     31612     31613     31614     31613     31615
     31614     31615     31616     31617     31616     31618     31617     31618
     31619     31620     31619     31621     31620     31621     31622     31623
     31622     31624     31623     31624     31625     31626     31625     31627
     31626     31627     31628     31629     31628     31630     31629     31630
     31631     31632     31631     31633     31632     31633     31634     31635
     31634     31636     31635     31636     31637     31638     31637     31639
     31638     31639     31640     31641     31640     31642     31641     31642
     31643     31644     31643     31645     31644     31645     31646     31647
     31646     31648     31647     31648     31649     31650     31649     31651
     31650     31651     31652     31653     31652     31654     31653     31654
     31655     31656     31655     31657     31656     31657     31658     31659
     31658     31660     31659     31660     31661     31662     31661     31663
     31662     31663     31664     31665     31664     31666     31665     31666
     31667     31668     31667     31669     31668     31669     31670     31671
     31670     31672     31671     31672     31673     31674     31673     31675
     31674     31675     31676     31677     31676     31678     31677     31678
     31679     31680     31679     31681     31680     31681     31682     31683
     31682     31684     31683     31684     31685     31686     31685     31687
     31686     31687     31688     31689     31688     31690     31689     31690
     31691     31692     31691     31693     31692     31693     31694     31695
     31694     31696     31695     31696     31697     31698     31697     31699
     31698     31699     31700     31701     31700     31702     31701     31702
     31703     31704     31703     31705     31704     31705     31706     31707
     31706     31708     31707     31708     31709     31710     31709     31711
     31710     31711     31712     31713     31712     31714     31713     31714
     31715     31716     31715     31717     31716     31717     31718     31719
     31718     31720     31719     31720     31721     31722     31721     31723
     31722     31723     31724     31725     31724     31726     31725     31726
     31727     31728     31727     31729     31728     31729     31730     31731
     31730     31732     31731     31732     31733     31734     31733     31735
     31734     31735     31736     31737     31736     31738     31737     31738
     31739     31740     31739     31741     31740     31741     31742     31743
     31742     31744     31743     31744     31745     31746     31745     31747
     31746     31747     31748     31749     31748     31750     31749     31750
     31751     31752     31751     31753     31752     31753     31754     31755
     31754     31756     31755     31756     31757     31758     31757     31759
     31758     31759     31760     31761     31760     31762     31761     31762
     31763     31764     31763     31765     31764     31765     31766     31767
     31766     31768     31767     31768     31769     31770     31769     31771
     31770     31771     31772     31773     31772     31774     31773     31774
     31775     31776     31775     31777     31776     31777     31778     31779
     31778     31780     31779     31780     31781     31782     31781     31783
     31782     31783     31784     31785     31784     31786     31785     31786
     31787     31788     31787     31789     31788     31789     31790     31791
     31790     31792     31791     31792     31793     31794     31793     31795
     31794     31795     31796     31797     31796     31798     31797     31798
     31799     31800     31799     31801     31800     31801     31802     31803
     31802     31804     31803     31804     31805     31806     31805     31807
     31806     31807     31808     31809     31808     31810     31809     31810
     31811     31812     31811     31813     31812     31813     31814     31815
     31814     31816     31815     31816     31817     31818     31817     31819
     31818     31819     31820     31821     31820     31822     31821     31822
     31823     31824     31823     31825     31824     31825     31826     31827
     31826     31828     31827     31828     31829     31830     31829     31831
     31830     31831     31832     31833     31832     31834     31833     31834
     31835     31836     31835     31837     31836     31837     31838     31839
     31838     31840     31839     31840     31841     31842     31841     31843
     31842     31843     31844     31845     31844     31846     31845     31846
     31847     31848     31847     31849     31848     31849     31850     31851
     31850     31852     31851     31852     31853     31854     31853     31855
     31854     31855     31856     31857     31856     31858     31857     31858
     31859     31860     31859     31861     31860     31861     31862     31863
     31862     31864     31863     31864     31865     31866     31865     31867
     31866     31867     31868     31869     31868     31870     31869     31870
     31871     31872     31871     31873     31872     31873     31874     31875
     31874     31876     31875     31876     31877     31878     31877     31879
     31878     31879     31880     31881     31880     31882     31881     31882
     31883     31884     31883     31885     31884     31885     31886     31887
     31886     31888     31887     31888     31889     31890     31889     31891
     31890     31891     31892     31893     31892     31894     31893     31894
     31895     31896     31895     31897     31896     31897     31898     31899
     31898     31900     31899     31900     31901     31902     31901     31903
     31902     31903     31904     31905     31904     31906     31905     31906
     31907     31908     31907     31909     31908     31909     31910     31911
     31910     31912     31911     31912     31913     31914     31913     31915
     31914     31915     31916     31917     31916     31918     31917     31918
     31919     31920     31919     31921     31920     31921     31922     31923
     31922     31924     31923     31924     31925     31926     31925     31927
     31926     31927     31928     31929     31928     31930     31929     31930
     31931     31932     31931     31933     31932     31933     31934     31935
     31934     31936     31935     31936     31937     31938     31937     31939
     31938     31939     31940     31941     31940     31942     31941     31942
     31943     31944     31943     31945     31944     31945     31946     31947
     31946     31948     31947     31948     31949     31950     31949     31951
     31950     31951     31952     31953     31952     31954     31953     31954
     31955     31956     31955     31957     31956     31957     31958     31959
     31958     31960     31959     31960     31961     31962     31961     31963
     31962     31963     31964     31965     31964     31966     31965     31966
     31967     31968     31967     31969     31968     31969     31970     31971
     31970     31972     31971     31972     31973     31974     31973     31975
     31974     31975     31976     31977     31976     31978     31977     31978
     31979     31980     31979     31981     31980     31981     31982     31983
     31982     31984     31983     31984     31985     31986     31985     31987
     31986     31987     31988     31989     31988     31990     31989     31990
     31991     31992     31991     31993     31992     31993     31994     31995
     31994     31996     31995     31996     31997     31998     31997     31999
     31998     31999     32000     32001     32000     32002     32001     32002
     32003     32004     32003     32005     32004     32005     32006     32007
     32006     32008     32007     32008     32009     32010     32009     32011
     32010     32011     32012     32013     32012     32014     32013     32014
     32015     32016     32015     32017     32016     32017     32018     32019
     32018     32020     32019     32020     32021     32022     32021     32023
     32022     32023     32024     32025     32024     32026     32025     32026
     32027     32028     32027     32029     32028     32029     32030     32031
     32030     32032     32031     32032     32033     32034     32033     32035
     32034     32035     32036     32037     32036     32038     32037     32038
     32039     32040     32039     32041     32040     32041     32042     32043
     32042     32044     32043     32044     32045     32046     32045     32047
     32046     32047     32048     32049     32048     32050     32049     32050
     32051     32052     32051     32053     32052     32053     32054     32055
     32054     32056     32055     32056     32057     32058     32057     32059
     32058     32059     32060     32061     32060     32062     32061     32062
     32063     32064     32063     32065     32064     32065     32066     32067
     32066     32068     32067     32068     32069     32070     32069     32071
     32070     32071     32072     32073     32072     32074     32073     32074
     32075     32076     32075     32077     32076     32077     32078     32079
     32078     32080     32079     32080     32081     32082     32081     32083
     32082     32083     32084     32085     32084     32086     32085     32086
     32087     32088     32087     32089     32088     32089     32090     32091
     32090     32092     32091     32092     32093     32094     32093     32095
     32094     32095     32096     32097     32096     32098     32097     32098
     32099     32100     32099     32101     32100     32101     32102     32103
     32102     32104     32103     32104     32105     32106     32105     32107
     32106     32107     32108     32109     32108     32110     32109     32110
     32111     32112     32111     32113     32112     32113     32114     32115
     32114     32116     32115     32116     32117     32118     32117     32119
     32118     32119     32120     32121     32120     32122     32121     32122
     32123     32124     32123     32125     32124     32125     32126     32127
     32126     32128     32127     32128     32129     32130     32129     32131
     32130     32131     32132     32133     32132     32134     32133     32134
     32135     32136     32135     32137     32136     32137     32138     32139
     32138     32140     32139     32140     32141     32142     32141     32143
     32142     32143     32144     32145     32144     32146     32145     32146
     32147     32148     32147     32149     32148     32149     32150     32151
     32150     32152     32151     32152     32153     32154     32153     32155
     32154     32155     32156     32157     32156     32158     32157     32158
     32159     32160     32159     32161     32160     32161     32162     32163
     32162     32164     32163     32164     32165     32166     32165     32167
     32166     32167     32168     32169     32168     32170     32169     32170
     32171     32172     32171     32173     32172     32173     32174     32175
     32174     32176     32175     32176     32177     32178     32177     32179
     32178     32179     32180     32181     32180     32182     32181     32182
     32183     32184     32183     32185     32184     32185     32186     32187
     32186     32188     32187     32188     32189     32190     32189     32191
     32190     32191     32192     32193     32192     32194     32193     32194
     32195     32196     32195     32197     32196     32197     32198     32199
     32198     32200     32199     32200     32201     32202     32201     32203
     32202     32203     32204     32205     32204     32206     32205     32206
     32207     32208     32207     32209     32208     32209     32210     32211
     32210     32212     32211     32212     32213     32214     32213     32215
     32214     32215     32216     32217     32216     32218     32217     32218
     32219     32220     32219     32221     32220     32221     32222     32223
     32222     32224     32223     32224     32225     32226     32225     32227
     32226     32227     32228     32229     32228     32230     32229     32230
     32231     32232     32231     32233     32232     32233     32234     32235
     32234     32236     32235     32236     32237     32238     32237     32239
     32238     32239     32240     32241     32240     32242     32241     32242
     32243     32244     32243     32245     32244     32245     32246     32247
     32246     32248     32247     32248     32249     32250     32249     32251
     32250     32251     32252     32253     32252     32254     32253     32254
     32255     32256     32255     32257     32256     32257     32258     32259
     32258     32260     32259     32260     32261     32262     32261     32263
     32262     32263     32264     32265     32264     32266     32265     32266
     32267     32268     32267     32269     32268     32269     32270     32271
     32270     32272     32271     32272     32273     32274     32273     32275
     32274     32275     32276     32277     32276     32278     32277     32278
     32279     32280     32279     32281     32280     32281     32282     32283
     32282     32284     32283     32284     32285     32286     32285     32287
     32286     32287     32288     32289     32288     32290     32289     32290
     32291     32292     32291     32293     32292     32293     32294     32295
     32294     32296     32295     32296     32297     32298     32297     32299
     32298     32299     32300     32301     32300     32302     32301     32302
     32303     32304     32303     32305     32304     32305     32306     32307
     32306     32308     32307     32308     32309     32310     32309     32311
     32310     32311     32312     32313     32312     32314     32313     32314
     32315     32316     32315     32317     32316     32317     32318     32319
     32318     32320     32319     32320     32321     32322     32321     32323
     32322     32323     32324     32325     32324     32326     32325     32326
     32327     32328     32327     32329     32328     32329     32330     32331
     32330     32332     32331     32332     32333     32334     32333     32335
     32334     32335     32336     32337     32336     32338     32337     32338
     32339     32340     32339     32341     32340     32341     32342     32343
     32342     32344     32343     32344     32345     32346     32345     32347
     32346     32347     32348     32349     32348     32350     32349     32350
     32351     32352     32351     32353     32352     32353     32354     32355
     32354     32356     32355     32356     32357     32358     32357     32359
     32358     32359     32360     32361     32360     32362     32361     32362
     32363     32364     32363     32365     32364     32365     32366     32367
     32366     32368     32367     32368     32369     32370     32369     32371
     32370     32371     32372     32373     32372     32374     32373     32374
     32375     32376     32375     32377     32376     32377     32378     32379
     32378     32380     32379     32380     32381     32382     32381     32383
     32382     32383     32384     32385     32384     32386     32385     32386
     32387     32388     32387     32389     32388     32389     32390     32391
     32390     32392     32391     32392     32393     32394     32393     32395
     32394     32395     32396     32397     32396     32398     32397     32398
     32399     32400     32399     32401     32400     32401     32402     32403
     32402     32404     32403     32404     32405     32406     32405     32407
     32406     32407     32408     32409     32408     32410     32409     32410
     32411     32412     32411     32413     32412     32413     32414     32415
     32414     32416     32415     32416     32417     32418     32417     32419
     32418     32419     32420     32421     32420     32422     32421     32422
     32423     32424     32423     32425     32424     32425     32426     32427
     32426     32428     32427     32428     32429     32430     32429     32431
     32430     32431     32432     32433     32432     32434     32433     32434
     32435     32436     32435     32437     32436     32437     32438     32439
     32438     32440     32439     32440     32441     32442     32441     32443
     32442     32443     32444     32445     32444     32446     32445     32446
     32447     32448     32447     32449     32448     32449     32450     32451
     32450     32452     32451     32452     32453     32454     32453     32455
     32454     32455     32456     32457     32456     32458     32457     32458
     32459     32460     32459     32461     32460     32461     32462     32463
     32462     32464     32463     32464     32465     32466     32465     32467
     32466     32467     32468     32469     32468     32470     32469     32470
     32471     32472     32471     32473     32472     32473     32474     32475
     32474     32476     32475     32476     32477     32478     32477     32479
     32478     32479     32480     32481     32480     32482     32481     32482
     32483     32484     32483     32485     32484     32485     32486     32487
     32486     32488     32487     32488     32489     32490     32489     32491
     32490     32491     32492     32493     32492     32494     32493     32494
     32495     32496     32495     32497     32496     32497     32498     32499
     32498     32500     32499     32500     32501     32502     32501     32503
     32502     32503     32504     32505     32504     32506     32505     32506
     32507     32508     32507     32509     32508     32509     32510     32511
     32510     32512     32511     32512     32513     32514     32513     32515
     32514     32515     32516     32517     32516     32518     32517     32518
     32519     32520     32519     32521     32520     32521     32522     32523
     32522     32524     32523     32524     32525     32526     32525     32527
     32526     32527     32528     32529     32528     32530     32529     32530
     32531     32532     32531     32533     32532     32533     32534     32535
     32534     32536     32535     32536     32537     32538     32537     32539
     32538     32539     32540     32541     32540     32542     32541     32542
     32543     32544     32543     32545     32544     32545     32546     32547
     32546     32548     32547     32548     32549     32550     32549     32551
     32550     32551     32552     32553     32552     32554     32553     32554
     32555     32556     32555     32557     32556     32557     32558     32559
     32558     32560     32559     32560     32561     32562     32561     32563
     32562     32563     32564     32565     32564     32566     32565     32566
     32567     32568     32567     32569     32568     32569     32570     32571
     32570     32572     32571     32572     32573     32574     32573     32575
     32574     32575     32576     32577     32576     32578     32577     32578
     32579     32580     32579     32581     32580     32581     32582     32583
     32582     32584     32583     32584     32585     32586     32585     32587
     32586     32587     32588     32589     32588     32590     32589     32590
     32591     32592     32591     32593     32592     32593     32594     32595
     32594     32596     32595     32596     32597     32598     32597     32599
     32598     32599     32600     32601     32600     32602     32601     32602
     32603     32604     32603     32605     32604     32605     32606     32607
     32606     32608     32607     32608     32609     32610     32609     32611
     32610     32611     32612     32613     32612     32614     32613     32614
     32615     32616     32615     32617     32616     32617     32618     32619
     32618     32620     32619     32620     32621     32622     32621     32623
     32622     32623     32624     32625     32624     32626     32625     32626
     32627     32628     32627     32629     32628     32629     32630     32631
     32630     32632     32631     32632     32633     32634     32633     32635
     32634     32635     32636     32637     32636     32638     32637     32638
     32639     32640     32639     32641     32640     32641     32642     32643
     32642     32644     32643     32644     32645     32646     32645     32647
     32646     32647     32648     32649     32648     32650     32649     32650
     32651     32652     32651     32653     32652     32653     32654     32655
     32654     32656     32655     32656     32657     32658     32657     32659
     32658     32659     32660     32661     32660     32662     32661     32662
     32663     32664     32663     32665     32664     32665     32666     32667
     32666     32668     32667     32668     32669     32670     32669     32671
     32670     32671     32672     32673     32672     32674     32673     32674
     32675     32676     32675     32677     32676     32677     32678     32679
     32678     32680     32679     32680     32681     32682     32681     32683
     32682     32683     32684     32685     32684     32686     32685     32686
     32687     32688     32687     32689     32688     32689     32690     32691
     32690     32692     32691     32692     32693     32694     32693     32695
     32694     32695     32696     32697     32696     32698     32697     32698
     32699     32700     32699     32701     32700     32701     32702     32703
     32702     32704     32703     32704     32705     32706     32705     32707
     32706     32707     32708     32709     32708     32710     32709     32710
     32711     32712     32711     32713     32712     32713     32714     32715
     32714     32716     32715     32716     32717     32718     32717     32719
     32718     32719     32720     32721     32720     32722     32721     32722
     32723     32724     32723     32725     32724     32725     32726     32727
     32726     32728     32727     32728     32729     32730     32729     32731
     32730     32731     32732     32733     32732     32734     32733     32734
     32735     32736     32735     32737     32736     32737     32738     32739
     32738     32740     32739     32740     32741     32742     32741     32743
     32742     32743     32744     32745     32744     32746     32745     32746
     32747     32748     32747     32749     32748     32749     32750     32751
     32750     32752     32751     32752     32753     32754     32753     32755
     32754     32755     32756     32757     32756     32758     32757     32758
     32759     32760     32759     32761     32760     32761     32762     32763
     32762     32764     32763     32764     32765     32766     32765     32767
     32766     32767     32768     32769     32768     32770     32769     32770
     32771     32772     32771     32773     32772     32773     32774     32775
     32774     32776     32775     32776     32777     32778     32777     32779
     32778     32779     32780     32781     32780     32782     32781     32782
     32783     32784     32783     32785     32784     32785     32786     32787
     32786     32788     32787     32788     32789     32790     32789     32791
     32790     32791     32792     32793     32792     32794     32793     32794
     32795     32796     32795     32797     32796     32797     32798     32799
     32798     32800     32799     32800     32801     32802     32801     32803
     32802     32803     32804     32805     32804     32806     32805     32806
     32807     32808     32807     32809     32808     32809     32810     32811
     32810     32812     32811     32812     32813     32814     32813     32815
     32814     32815     32816     32817     32816     32818     32817     32818
     32819     32820     32819     32821     32820     32821     32822     32823
     32822     32824     32823     32824     32825     32826     32825     32827
     32826     32827     32828     32829     32828     32830     32829     32830
     32831     32832     32831     32833     32832     32833     32834     32835
     32834     32836     32835     32836     32837     32838     32837     32839
     32838     32839     32840     32841     32840     32842     32841     32842
     32843     32844     32843     32845     32844     32845     32846     32847
     32846     32848     32847     32848     32849     32850     32849     32851
     32850     32851     32852     32853     32852     32854     32853     32854
     32855     32856     32855     32857     32856     32857     32858     32859
     32858     32860     32859     32860     32861     32862     32861     32863
     32862     32863     32864     32865     32864     32866     32865     32866
     32867     32868     32867     32869     32868     32869     32870     32871
     32870     32872     32871     32872     32873     32874     32873     32875
     32874     32875     32876     32877     32876     32878     32877     32878
     32879     32880     32879     32881     32880     32881     32882     32883
     32882     32884     32883     32884     32885     32886     32885     32887
     32886     32887     32888     32889     32888     32890     32889     32890
     32891     32892     32891     32893     32892     32893     32894     32895
     32894     32896     32895     32896     32897     32898     32897     32899
     32898     32899     32900     32901     32900     32902     32901     32902
     32903     32904     32903     32905     32904     32905     32906     32907
     32906     32908     32907     32908     32909     32910     32909     32911
     32910     32911     32912     32913     32912     32914     32913     32914
     32915     32916     32915     32917     32916     32917     32918     32919
     32918     32920     32919     32920     32921     32922     32921     32923
     32922     32923     32924     32925     32924     32926     32925     32926
     32927     32928     32927     32929     32928     32929     32930     32931
     32930     32932     32931     32932     32933     32934     32933     32935
     32934     32935     32936     32937     32936     32938     32937     32938
     32939     32940     32939     32941     32940     32941     32942     32943
     32942     32944     32943     32944     32945     32946     32945     32947
     32946     32947     32948     32949     32948     32950     32949     32950
     32951     32952     32951     32953     32952     32953     32954     32955
     32954     32956     32955     32956     32957     32958     32957     32959
     32958     32959     32960     32961     32960     32962     32961     32962
     32963     32964     32963     32965     32964     32965     32966     32967
     32966     32968     32967     32968     32969     32970     32969     32971
     32970     32971     32972     32973     32972     32974     32973     32974
     32975     32976     32975     32977     32976     32977     32978     32979
     32978     32980     32979     32980     32981     32982     32981     32983
     32982     32983     32984     32985     32984     32986     32985     32986
     32987     32988     32987     32989     32988     32989     32990     32991
     32990     32992     32991     32992     32993     32994     32993     32995
     32994     32995     32996     32997     32996     32998     32997     32998
     32999     33000     32999     33001     33000     33001     33002     33003
     33002     33004     33003     33004     33005     33006     33005     33007
     33006     33007     33008     33009     33008     33010     33009     33010
     33011     33012     33011     33013     33012     33013     33014     33015
     33014     33016     33015     33016     33017     33018     33017     33019
     33018     33019     33020     33021     33020     33022     33021     33022
     33023     33024     33023     33025     33024     33025     33026     33027
     33026     33028     33027     33028     33029     33030     33029     33031
     33030     33031     33032     33033     33032     33034     33033     33034
     33035     33036     33035     33037     33036     33037     33038     33039
     33038     33040     33039     33040     33041     33042     33041     33043
     33042     33043     33044     33045     33044     33046     33045     33046
     33047     33048     33047     33049     33048     33049     33050     33051
     33050     33052     33051     33052     33053     33054     33053     33055
     33054     33055     33056     33057     33056     33058     33057     33058
     33059     33060     33059     33061     33060     33061     33062     33063
     33062     33064     33063     33064     33065     33066     33065     33067
     33066     33067     33068     33069     33068     33070     33069     33070
     33071     33072     33071     33073     33072     33073     33074     33075
     33074     33076     33075     33076     33077     33078     33077     33079
     33078     33079     33080     33081     33080     33082     33081     33082
     33083     33084     33083     33085     33084     33085     33086     33087
     33086     33088     33087     33088     33089     33090     33089     33091
     33090     33091     33092     33093     33092     33094     33093     33094
     33095     33096     33095     33097     33096     33097     33098     33099
     33098     33100     33099     33100     33101     33102     33101     33103
     33102     33103     33104     33105     33104     33106     33105     33106
     33107     33108     33107     33109     33108     33109     33110     33111
     33110     33112     33111     33112     33113     33114     33113     33115
     33114     33115     33116     33117     33116     33118     33117     33118
     33119     33120     33119     33121     33120     33121     33122     33123
     33122     33124     33123     33124     33125     33126     33125     33127
     33126     33127     33128     33129     33128     33130     33129     33130
     33131     33132     33131     33133     33132     33133     33134     33135
     33134     33136     33135     33136     33137     33138     33137     33139
     33138     33139     33140     33141     33140     33142     33141     33142
     33143     33144     33143     33145     33144     33145     33146     33147
     33146     33148     33147     33148     33149     33150     33149     33151
     33150     33151     33152     33153     33152     33154     33153     33154
     33155     33156     33155     33157     33156     33157     33158     33159
     33158     33160     33159     33160     33161     33162     33161     33163
     33162     33163     33164     33165     33164     33166     33165     33166
     33167     33168     33167     33169     33168     33169     33170     33171
     33170     33172     33171     33172     33173     33174     33173     33175
     33174     33175     33176     33177     33176     33178     33177     33178
     33179     33180     33179     33181     33180     33181     33182     33183
     33182     33184     33183     33184     33185     33186     33185     33187
     33186     33187     33188     33189     33188     33190     33189     33190
     33191     33192     33191     33193     33192     33193     33194     33195
     33194     33196     33195     33196     33197     33198     33197     33199
     33198     33199     33200     33201     33200     33202     33201     33202
     33203     33204     33203     33205     33204     33205     33206     33207
     33206     33208     33207     33208     33209     33210     33209     33211
     33210     33211     33212     33213     33212     33214     33213     33214
     33215     33216     33215     33217     33216     33217     33218     33219
     33218     33220     33219     33220     33221     33222     33221     33223
     33222     33223     33224     33225     33224     33226     33225     33226
     33227     33228     33227     33229     33228     33229     33230     33231
     33230     33232     33231     33232     33233     33234     33233     33235
     33234     33235     33236     33237     33236     33238     33237     33238
     33239     33240     33239     33241     33240     33241     33242     33243
     33242     33244     33243     33244     33245     33246     33245     33247
     33246     33247     33248     33249     33248     33250     33249     33250
     33251     33252     33251     33253     33252     33253     33254     33255
     33254     33256     33255     33256     33257     33258     33257     33259
     33258     33259     33260     33261     33260     33262     33261     33262
     33263     33264     33263     33265     33264     33265     33266     33267
     33266     33268     33267     33268     33269     33270     33269     33271
     33270     33271     33272     33273     33272     33274     33273     33274
     33275     33276     33275     33277     33276     33277     33278     33279
     33278     33280     33279     33280     33281     33282     33281     33283
     33282     33283     33284     33285     33284     33286     33285     33286
     33287     33288     33287     33289     33288     33289     33290     33291
     33290     33292     33291     33292     33293     33294     33293     33295
     33294     33295     33296     33297     33296     33298     33297     33298
     33299     33300     33299     33301     33300     33301     33302     33303
     33302     33304     33303     33304     33305     33306     33305     33307
     33306     33307     33308     33309     33308     33310     33309     33310
     33311     33312     33311     33313     33312     33313     33314     33315
     33314     33316     33315     33316     33317     33318     33317     33319
     33318     33319     33320     33321     33320     33322     33321     33322
     33323     33324     33323     33325     33324     33325     33326     33327
     33326     33328     33327     33328     33329     33330     33329     33331
     33330     33331     33332     33333     33332     33334     33333     33334
     33335     33336     33335     33337     33336     33337     33338     33339
     33338     33340     33339     33340     33341     33342     33341     33343
     33342     33343     33344     33345     33344     33346     33345     33346
     33347     33348     33347     33349     33348     33349     33350     33351
     33350     33352     33351     33352     33353     33354     33353     33355
     33354     33355     33356     33357     33356     33358     33357     33358
     33359     33360     33359     33361     33360     33361     33362     33363
     33362     33364     33363     33364     33365     33366     33365     33367
     33366     33367     33368     33369     33368     33370     33369     33370
     33371     33372     33371     33373     33372     33373     33374     33375
     33374     33376     33375     33376     33377     33378     33377     33379
     33378     33379     33380     33381     33380     33382     33381     33382
     33383     33384     33383     33385     33384     33385     33386     33387
     33386     33388     33387     33388     33389     33390     33389     33391
     33390     33391     33392     33393     33392     33394     33393     33394
     33395     33396     33395     33397     33396     33397     33398     33399
     33398     33400     33399     33400     33401     33402     33401     33403
     33402     33403     33404     33405     33404     33406     33405     33406
     33407     33408     33407     33409     33408     33409     33410     33411
     33410     33412     33411     33412     33413     33414     33413     33415
     33414     33415     33416     33417     33416     33418     33417     33418
     33419     33420     33419     33421     33420     33421     33422     33423
     33422     33424     33423     33424     33425     33426     33425     33427
     33426     33427     33428     33429     33428     33430     33429     33430
     33431     33432     33431     33433     33432     33433     33434     33435
     33434     33436     33435     33436     33437     33438     33437     33439
     33438     33439     33440     33441     33440     33442     33441     33442
     33443     33444     33443     33445     33444     33445     33446     33447
     33446     33448     33447     33448     33449     33450     33449     33451
     33450     33451     33452     33453     33452     33454     33453     33454
     33455     33456     33455     33457     33456     33457     33458     33459
     33458     33460     33459     33460     33461     33462     33461     33463
     33462     33463     33464     33465     33464     33466     33465     33466
     33467     33468     33467     33469     33468     33469     33470     33471
     33470     33472     33471     33472     33473     33474     33473     33475
     33474     33475     33476     33477     33476     33478     33477     33478
     33479     33480     33479     33481     33480     33481     33482     33483
     33482     33484     33483     33484     33485     33486     33485     33487
     33486     33487     33488     33489     33488     33490     33489     33490
     33491     33492     33491     33493     33492     33493     33494     33495
     33494     33496     33495     33496     33497     33498     33497     33499
     33498     33499     33500     33501     33500     33502     33501     33502
     33503     33504     33503     33505     33504     33505     33506     33507
     33506     33508     33507     33508     33509     33510     33509     33511
     33510     33511     33512     33513     33512     33514     33513     33514
     33515     33516     33515     33517     33516     33517     33518     33519
     33518     33520     33519     33520     33521     33522     33521     33523
     33522     33523     33524     33525     33524     33526     33525     33526
     33527     33528     33527     33529     33528     33529     33530     33531
     33530     33532     33531     33532     33533     33534     33533     33535
     33534     33535     33536     33537     33536     33538     33537     33538
     33539     33540     33539     33541     33540     33541     33542     33543
     33542     33544     33543     33544     33545     33546     33545     33547
     33546     33547     33548     33549     33548     33550     33549     33550
     33551     33552     33551     33553     33552     33553     33554     33555
     33554     33556     33555     33556     33557     33558     33557     33559
     33558     33559     33560     33561     33560     33562     33561     33562
     33563     33564     33563     33565     33564     33565     33566     33567
     33566     33568     33567     33568     33569     33570     33569     33571
     33570     33571     33572     33573     33572     33574     33573     33574
     33575     33576     33575     33577     33576     33577     33578     33579
     33578     33580     33579     33580     33581     33582     33581     33583
     33582     33583     33584     33585     33584     33586     33585     33586
     33587     33588     33587     33589     33588     33589     33590     33591
     33590     33592     33591     33592     33593     33594     33593     33595
     33594     33595     33596     33597     33596     33598     33597     33598
     33599     33600     33599     33601     33600     33601     33602     33603
     33602     33604     33603     33604     33605     33606     33605     33607
     33606     33607     33608     33609     33608     33610     33609     33610
     33611     33612     33611     33613     33612     33613     33614     33615
     33614     33616     33615     33616     33617     33618     33617     33619
     33618     33619     33620     33621     33620     33622     33621     33622
     33623     33624     33623     33625     33624     33625     33626     33627
     33626     33628     33627     33628     33629     33630     33629     33631
     33630     33631     33632     33633     33632     33634     33633     33634
     33635     33636     33635     33637     33636     33637     33638     33639
     33638     33640     33639     33640     33641     33642     33641     33643
     33642     33643     33644     33645     33644     33646     33645     33646
     33647     33648     33647     33649     33648     33649     33650     33651
     33650     33652     33651     33652     33653     33654     33653     33655
     33654     33655     33656     33657     33656     33658     33657     33658
     33659     33660     33659     33661     33660     33661     33662     33663
     33662     33664     33663     33664     33665     33666     33665     33667
     33666     33667     33668     33669     33668     33670     33669     33670
     33671     33672     33671     33673     33672     33673     33674     33675
     33674     33676     33675     33676     33677     33678     33677     33679
     33678     33679     33680     33681     33680     33682     33681     33682
     33683     33684     33683     33685     33684     33685     33686     33687
     33686     33688     33687     33688     33689     33690     33689     33691
     33690     33691     33692     33693     33692     33694     33693     33694
     33695     33696     33695     33697     33696     33697     33698     33699
     33698     33700     33699     33700     33701     33702     33701     33703
     33702     33703     33704     33705     33704     33706     33705     33706
     33707     33708     33707     33709     33708     33709     33710     33711
     33710     33712     33711     33712     33713     33714     33713     33715
     33714     33715     33716     33717     33716     33718     33717     33718
     33719     33720     33719     33721     33720     33721     33722     33723
     33722     33724     33723     33724     33725     33726     33725     33727
     33726     33727     33728     33729     33728     33730     33729     33730
     33731     33732     33731     33733     33732     33733     33734     33735
     33734     33736     33735     33736     33737     33738     33737     33739
     33738     33739     33740     33741     33740     33742     33741     33742
     33743     33744     33743     33745     33744     33745     33746     33747
     33746     33748     33747     33748     33749     33750     33749     33751
     33750     33751     33752     33753     33752     33754     33753     33754
     33755     33756     33755     33757     33756     33757     33758     33759
     33758     33760     33759     33760     33761     33762     33761     33763
     33762     33763     33764     33765     33764     33766     33765     33766
     33767     33768     33767     33769     33768     33769     33770     33771
     33770     33772     33771     33772     33773     33774     33773     33775
     33774     33775     33776     33777     33776     33778     33777     33778
     33779     33780     33779     33781     33780     33781     33782     33783
     33782     33784     33783     33784     33785     33786     33785     33787
     33786     33787     33788     33789     33788     33790     33789     33790
     33791     33792     33791     33793     33792     33793     33794     33795
     33794     33796     33795     33796     33797     33798     33797     33799
     33798     33799     33800     33801     33800     33802     33801     33802
     33803     33804     33803     33805     33804     33805     33806     33807
     33806     33808     33807     33808     33809     33810     33809     33811
     33810     33811     33812     33813     33812     33814     33813     33814
     33815     33816     33815     33817     33816     33817     33818     33819
     33818     33820     33819     33820     33821     33822     33821     33823
     33822     33823     33824     33825     33824     33826     33825     33826
     33827     33828     33827     33829     33828     33829     33830     33831
     33830     33832     33831     33832     33833     33834     33833     33835
     33834     33835     33836     33837     33836     33838     33837     33838
     33839     33840     33839     33841     33840     33841     33842     33843
     33842     33844     33843     33844     33845     33846     33845     33847
     33846     33847     33848     33849     33848     33850     33849     33850
     33851     33852     33851     33853     33852     33853     33854     33855
     33854     33856     33855     33856     33857     33858     33857     33859
     33858     33859     33860     33861     33860     33862     33861     33862
     33863     33864     33863     33865     33864     33865     33866     33867
     33866     33868     33867     33868     33869     33870     33869     33871
     33870     33871     33872     33873     33872     33874     33873     33874
     33875     33876     33875     33877     33876     33877     33878     33879
     33878     33880     33879     33880     33881     33882     33881     33883
     33882     33883     33884     33885     33884     33886     33885     33886
     33887     33888     33887     33889     33888     33889     33890     33891
     33890     33892     33891     33892     33893     33894     33893     33895
     33894     33895     33896     33897     33896     33898     33897     33898
     33899     33900     33899     33901     33900     33901     33902     33903
     33902     33904     33903     33904     33905     33906     33905     33907
     33906     33907     33908     33909     33908     33910     33909     33910
     33911     33912     33911     33913     33912     33913     33914     33915
     33914     33916     33915     33916     33917     33918     33917     33919
     33918     33919     33920     33921     33920     33922     33921     33922
     33923     33924     33923     33925     33924     33925     33926     33927
     33926     33928     33927     33928     33929     33930     33929     33931
     33930     33931     33932     33933     33932     33934     33933     33934
     33935     33936     33935     33937     33936     33937     33938     33939
     33938     33940     33939     33940     33941     33942     33941     33943
     33942     33943     33944     33945     33944     33946     33945     33946
     33947     33948     33947     33949     33948     33949     33950     33951
     33950     33952     33951     33952     33953     33954     33953     33955
     33954     33955     33956     33957     33956     33958     33957     33958
     33959     33960     33959     33961     33960     33961     33962     33963
     33962     33964     33963     33964     33965     33966     33965     33967
     33966     33967     33968     33969     33968     33970     33969     33970
     33971     33972     33971     33973     33972     33973     33974     33975
     33974     33976     33975     33976     33977     33978     33977     33979
     33978     33979     33980     33981     33980     33982     33981     33982
     33983     33984     33983     33985     33984     33985     33986     33987
     33986     33988     33987     33988     33989     33990     33989     33991
     33990     33991     33992     33993     33992     33994     33993     33994
     33995     33996     33995     33997     33996     33997     33998     33999
     33998     34000     33999     34000     34001     34002     34001     34003
     34002     34003     34004     34005     34004     34006     34005     34006
     34007     34008     34007     34009     34008     34009     34010     34011
     34010     34012     34011     34012     34013     34014     34013     34015
     34014     34015     34016     34017     34016     34018     34017     34018
     34019     34020     34019     34021     34020     34021     34022     34023
     34022     34024     34023     34024     34025     34026     34025     34027
     34026     34027     34028     34029     34028     34030     34029     34030
     34031     34032     34031     34033     34032     34033     34034     34035
     34034     34036     34035     34036     34037     34038     34037     34039
     34038     34039     34040     34041     34040     34042     34041     34042
     34043     34044     34043     34045     34044     34045     34046     34047
     34046     34048     34047     34048     34049     34050     34049     34051
     34050     34051     34052     34053     34052     34054     34053     34054
     34055     34056     34055     34057     34056     34057     34058     34059
     34058     34060     34059     34060     34061     34062     34061     34063
     34062     34063     34064     34065     34064     34066     34065     34066
     34067     34068     34067     34069     34068     34069     34070     34071
     34070     34072     34071     34072     34073     34074     34073     34075
     34074     34075     34076     34077     34076     34078     34077     34078
     34079     34080     34079     34081     34080     34081     34082     34083
     34082     34084     34083     34084     34085     34086     34085     34087
     34086     34087     34088     34089     34088     34090     34089     34090
     34091     34092     34091     34093     34092     34093     34094     34095
     34094     34096     34095     34096     34097     34098     34097     34099
     34098     34099     34100     34101     34100     34102     34101     34102
     34103     34104     34103     34105     34104     34105     34106     34107
     34106     34108     34107     34108     34109     34110     34109     34111
     34110     34111     34112     34113     34112     34114     34113     34114
     34115     34116     34115     34117     34116     34117     34118     34119
     34118     34120     34119     34120     34121     34122     34121     34123
     34122     34123     34124     34125     34124     34126     34125     34126
     34127     34128     34127     34129     34128     34129     34130     34131
     34130     34132     34131     34132     34133     34134     34133     34135
     34134     34135     34136     34137     34136     34138     34137     34138
     34139     34140     34139     34141     34140     34141     34142     34143
     34142     34144     34143     34144     34145     34146     34145     34147
     34146     34147     34148     34149     34148     34150     34149     34150
     34151     34152     34151     34153     34152     34153     34154     34155
     34154     34156     34155     34156     34157     34158     34157     34159
     34158     34159     34160     34161     34160     34162     34161     34162
     34163     34164     34163     34165     34164     34165     34166     34167
     34166     34168     34167     34168     34169     34170     34169     34171
     34170     34171     34172     34173     34172     34174     34173     34174
     34175     34176     34175     34177     34176     34177     34178     34179
     34178     34180     34179     34180     34181     34182     34181     34183
     34182     34183     34184     34185     34184     34186     34185     34186
     34187     34188     34187     34189     34188     34189     34190     34191
     34190     34192     34191     34192     34193     34194     34193     34195
     34194     34195     34196     34197     34196     34198     34197     34198
     34199     34200     34199     34201     34200     34201     34202     34203
     34202     34204     34203     34204     34205     34206     34205     34207
     34206     34207     34208     34209     34208     34210     34209     34210
     34211     34212     34211     34213     34212     34213     34214     34215
     34214     34216     34215     34216     34217     34218     34217     34219
     34218     34219     34220     34221     34220     34222     34221     34222
     34223     34224     34223     34225     34224     34225     34226     34227
     34226     34228     34227     34228     34229     34230     34229     34231
     34230     34231     34232     34233     34232     34234     34233     34234
     34235     34236     34235     34237     34236     34237     34238     34239
     34238     34240     34239     34240     34241     34242     34241     34243
     34242     34243     34244     34245     34244     34246     34245     34246
     34247     34248     34247     34249     34248     34249     34250     34251
     34250     34252     34251     34252     34253     34254     34253     34255
     34254     34255     34256     34257     34256     34258     34257     34258
     34259     34260     34259     34261     34260     34261     34262     34263
     34262     34264     34263     34264     34265     34266     34265     34267
     34266     34267     34268     34269     34268     34270     34269     34270
     34271     34272     34271     34273     34272     34273     34274     34275
     34274     34276     34275     34276     34277     34278     34277     34279
     34278     34279     34280     34281     34280     34282     34281     34282
     34283     34284     34283     34285     34284     34285     34286     34287
     34286     34288     34287     34288     34289     34290     34289     34291
     34290     34291     34292     34293     34292     34294     34293     34294
     34295     34296     34295     34297     34296     34297     34298     34299
     34298     34300     34299     34300     34301     34302     34301     34303
     34302     34303     34304     34305     34304     34306     34305     34306
     34307     34308     34307     34309     34308     34309     34310     34311
     34310     34312     34311     34312     34313     34314     34313     34315
     34314     34315     34316     34317     34316     34318     34317     34318
     34319     34320     34319     34321     34320     34321     34322     34323
     34322     34324     34323     34324     34325     34326     34325     34327
     34326     34327     34328     34329     34328     34330     34329     34330
     34331     34332     34331     34333     34332     34333     34334     34335
     34334     34336     34335     34336     34337     34338     34337     34339
     34338     34339     34340     34341     34340     34342     34341     34342
     34343     34344     34343     34345     34344     34345     34346     34347
     34346     34348     34347     34348     34349     34350     34349     34351
     34350     34351     34352     34353     34352     34354     34353     34354
     34355     34356     34355     34357     34356     34357     34358     34359
     34358     34360     34359     34360     34361     34362     34361     34363
     34362     34363     34364     34365     34364     34366     34365     34366
     34367     34368     34367     34369     34368     34369     34370     34371
     34370     34372     34371     34372     34373     34374     34373     34375
     34374     34375     34376     34377     34376     34378     34377     34378
     34379     34380     34379     34381     34380     34381     34382     34383
     34382     34384     34383     34384     34385     34386     34385     34387
     34386     34387     34388     34389     34388     34390     34389     34390
     34391     34392     34391     34393     34392     34393     34394     34395
     34394     34396     34395     34396     34397     34398     34397     34399
     34398     34399     34400     34401     34400     34402     34401     34402
     34403     34404     34403     34405     34404     34405     34406     34407
     34406     34408     34407     34408     34409     34410     34409     34411
     34410     34411     34412     34413     34412     34414     34413     34414
     34415     34416     34415     34417     34416     34417     34418     34419
     34418     34420     34419     34420     34421     34422     34421     34423
     34422     34423     34424     34425     34424     34426     34425     34426
     34427     34428     34427     34429     34428     34429     34430     34431
     34430     34432     34431     34432     34433     34434     34433     34435
     34434     34435     34436     34437     34436     34438     34437     34438
     34439     34440     34439     34441     34440     34441     34442     34443
     34442     34444     34443     34444     34445     34446     34445     34447
     34446     34447     34448     34449     34448     34450     34449     34450
     34451     34452     34451     34453     34452     34453     34454     34455
     34454     34456     34455     34456     34457     34458     34457     34459
     34458     34459     34460     34461     34460     34462     34461     34462
     34463     34464     34463     34465     34464     34465     34466     34467
     34466     34468     34467     34468     34469     34470     34469     34471
     34470     34471     34472     34473     34472     34474     34473     34474
     34475     34476     34475     34477     34476     34477     34478     34479
     34478     34480     34479     34480     34481     34482     34481     34483
     34482     34483     34484     34485     34484     34486     34485     34486
     34487     34488     34487     34489     34488     34489     34490     34491
     34490     34492     34491     34492     34493     34494     34493     34495
     34494     34495     34496     34497     34496     34498     34497     34498
     34499     34500     34499     34501     34500     34501     34502     34503
     34502     34504     34503     34504     34505     34506     34505     34507
     34506     34507     34508     34509     34508     34510     34509     34510
     34511     34512     34511     34513     34512     34513     34514     34515
     34514     34516     34515     34516     34517     34518     34517     34519
     34518     34519     34520     34521     34520     34522     34521     34522
     34523     34524     34523     34525     34524     34525     34526     34527
     34526     34528     34527     34528     34529     34530     34529     34531
     34530     34531     34532     34533     34532     34534     34533     34534
     34535     34536     34535     34537     34536     34537     34538     34539
     34538     34540     34539     34540     34541     34542     34541     34543
     34542     34543     34544     34545     34544     34546     34545     34546
     34547     34548     34547     34549     34548     34549     34550     34551
     34550     34552     34551     34552     34553     34554     34553     34555
     34554     34555     34556     34557     34556     34558     34557     34558
     34559     34560     34559     34561     34560     34561     34562     34563
     34562     34564     34563     34564     34565     34566     34565     34567
     34566     34567     34568     34569     34568     34570     34569     34570
     34571     34572     34571     34573     34572     34573     34574     34575
     34574     34576     34575     34576     34577     34578     34577     34579
     34578     34579     34580     34581     34580     34582     34581     34582
     34583     34584     34583     34585     34584     34585     34586     34587
     34586     34588     34587     34588     34589     34590     34589     34591
     34590     34591     34592     34593     34592     34594     34593     34594
     34595     34596     34595     34597     34596     34597     34598     34599
     34598     34600     34599     34600     34601     34602     34601     34603
     34602     34603     34604     34605     34604     34606     34605     34606
     34607     34608     34607     34609     34608     34609     34610     34611
     34610     34612     34611     34612     34613     34614     34613     34615
     34614     34615     34616     34617     34616     34618     34617     34618
     34619     34620     34619     34621     34620     34621     34622     34623
     34622     34624     34623     34624     34625     34626     34625     34627
     34626     34627     34628     34629     34628     34630     34629     34630
     34631     34632     34631     34633     34632     34633     34634     34635
     34634     34636     34635     34636     34637     34638     34637     34639
     34638     34639     34640     34641     34640     34642     34641     34642
     34643     34644     34643     34645     34644     34645     34646     34647
     34646     34648     34647     34648     34649     34650     34649     34651
     34650     34651     34652     34653     34652     34654     34653     34654
     34655     34656     34655     34657     34656     34657     34658     34659
     34658     34660     34659     34660     34661     34662     34661     34663
     34662     34663     34664     34665     34664     34666     34665     34666
     34667     34668     34667     34669     34668     34669     34670     34671
     34670     34672     34671     34672     34673     34674     34673     34675
     34674     34675     34676     34677     34676     34678     34677     34678
     34679     34680     34679     34681     34680     34681     34682     34683
     34682     34684     34683     34684     34685     34686     34685     34687
     34686     34687     34688     34689     34688     34690     34689     34690
     34691     34692     34691     34693     34692     34693

     38909 !NTHETA: angles
         2         1         3         2         1         4         2         1         5
         3         1         4         3         1         5         4         1         5
         1         5         6         1         5         7         1         5        23
         6         5         7         6         5        23         7         5        23
         5         7         8         5         7         9         5         7        10
         8         7         9         8         7        10         9         7        10
         7        10        11         7        10        12         7        10        13
        11        10        12        11        10        13        12        10        13
        10        13        14        10        13        15        10        13        16
        14        13        15        14        13        16        15        13        16
        13        16        17        13        16        18        13        16        19
        17        16        18        17        16        19        18        16        19
        16        19        20        16        19        21        16        19        22
        20        19        21        20        19        22        21        19        22
         5        23        24         5        23        25        24        23        25
        27        26        28        27        26        29        27        26        30
        28        26        29        28        26        30        29        26        30
        26        30        31        26        30        32        26        30        48
        31        30        32        31        30        48        32        30        48
        30        32        33        30        32        34        30        32        35
        33        32        34        33        32        35        34        32        35
        32        35        36        32        35        37        32        35        38
        36        35        37        36        35        38        37        35        38
        35        38        39        35        38        40        35        38        41
        39        38        40        39        38        41        40        38        41
        38        41        42        38        41        43        38        41        44
        42        41        43        42        41        44        43        41        44
        41        44        45        41        44        46        41        44        47
        45        44        46        45        44        47        46        44        47
        30        48        49        30        48        50        49        48        50
        52        51        53        52        51        54        52        51        55
        53        51        54        53        51        55        54        51        55
        51        55        56        51        55        57        51        55        75
        56        55        57        56        55        75        57        55        75
        55        57        58        55        57        59        55        57        60
        58        57        59        58        57        60        59        57        60
        57        60        61        57        60        62        57        60        63
        61        60        62        61        60        63        62        60        63
        60        63        64        60        63        65        60        63        66
        64        63        65        64        63        66        65        63        66
        63        66        67        63        66        68        67        66        68
        66        68        69        66        68        72        69        68        72
        68        69        70        68        69        71        70        69        71
        68        72        73        68        72        74        73        72        74
        55        75        76        55        75        77        76        75        77
        79        78        80        79        78        81        79        78        84
        80        78        81        80        78        84        81        78        84
        78        81        82        78        81        83        78        81        89
        82        81        83        82        81        89        83        81        89
        78        84        85        78        84        86        78        84        92
        85        84        86        85        84        92        86        84        92
        84        86        87        84        86        88        84        86        89
        87        86        88        87        86        89        88        86        89
        81        89        86        81        89        90        81        89        91
        86        89        90        86        89        91        90        89        91
        84        92        93        84        92        94        93        92        94
        96        95        97        96        95        98        96        95        99
        97        95        98        97        95        99        98        95        99
        95        99       100        95        99       101        95        99       117
       100        99       101       100        99       117       101        99       117
        99       101       102        99       101       103        99       101       104
       102       101       103       102       101       104       103       101       104
       101       104       105       101       104       106       101       104       107
       105       104       106       105       104       107       106       104       107
       104       107       108       104       107       109       104       107       110
       108       107       109       108       107       110       109       107       110
       107       110       111       107       110       112       107       110       113
       111       110       112       111       110       113       112       110       113
       110       113       114       110       113       115       110       113       116
       114       113       115       114       113       116       115       113       116
        99       117       118        99       117       119       118       117       119
       121       120       122       121       120       123       121       120       126
       122       120       123       122       120       126       123       120       126
       120       123       124       120       123       125       120       123       131
       124       123       125       124       123       131       125       123       131
       120       126       127       120       126       128       120       126       134
       127       126       128       127       126       134       128       126       134
       126       128       129       126       128       130       126       128       131
       129       128       130       129       128       131       130       128       131
       123       131       128       123       131       132       123       131       133
       128       131       132       128       131       133       132       131       133
       126       134       135       126       134       136       135       134       136
       138       137       141       138       137       145       138       137       149
       141       137       145       141       137       149       145       137       149
       137       138       139       137       138       140       137       138       153
       139       138       140       139       138       153       140       138       153
       137       141       142       137       141       143       137       141       144
       142       141       143       142       141       144       143       141       144
       137       145       146       137       145       147       137       145       148
       146       145       147       146       145       148       147       145       148
       137       149       150       137       149       151       137       149       152
       150       149       151       150       149       152       151       149       152
       138       153       154       138       153       155       138       153       159
       154       153       155       154       153       159       155       153       159
       157       156       158       157       156       159       157       156       160
       158       156       159       158       156       160       159       156       160
       153       159       156       156       160       161       160       161       162
       160       161       163       160       161       164       162       161       163
       162       161       164       163       161       164       161       164       165
       161       164       166       161       164       172       165       164       166
       165       164       172       166       164       172       164       166       167
       166       167       168       166       167       169       168       167       169
       167       169       170       167       169       171       167       169       181
       170       169       171       170       169       181       171       169       181
       164       172       173       164       172       174       164       172       175
       173       172       174       173       172       175       174       172       175
       172       175       176       175       176       177       175       176       178
       177       176       178       176       178       179       176       178       180
       176       178       228       179       178       180       179       178       228
       180       178       228       169       181       182       169       181       183
       169       181       184       182       181       183       182       181       184
       183       181       184       181       184       185       181       184       186
       181       184       187       185       184       186       185       184       187
       186       184       187       184       187       188       184       187       189
       184       187       190       188       187       189       188       187       190
       189       187       190       187       190       191       187       190       192
       187       190       193       191       190       192       191       190       193
       192       190       193       190       193       194       190       193       195
       190       193       196       194       193       195       194       193       196
       195       193       196       193       196       197       193       196       198
       193       196       199       197       196       198       197       196       199
       198       196       199       196       199       200       196       199       201
       200       199       201       199       201       202       199       201       203
       202       201       203       201       203       204       201       203       205
       201       203       206       204       203       205       204       203       206
       205       203       206       203       206       207       203       206       208
       203       206       209       207       206       208       207       206       209
       208       206       209       206       209       210       206       209       211
       206       209       212       210       209       211       210       209       212
       211       209       212       209       212       213       209       212       214
       209       212       215       213       212       214       213       212       215
       214       212       215       212       215       216       212       215       217
       212       215       218       216       215       217       216       215       218
       217       215       218       215       218       219       215       218       220
       215       218       221       219       218       220       219       218       221
       220       218       221       218       221       222       218       221       223
       218       221       224       222       221       223       222       221       224
       223       221       224       221       224       225       221       224       226
       221       224       227       225       224       226       225       224       227
       226       224       227       178       228       229       178       228       230
       178       228       231       229       228       230       229       228       231
       230       228       231       228       231       232       228       231       233
       228       231       234       232       231       233       232       231       234
       233       231       234       231       234       235       231       234       236
       231       234       237       235       234       236       235       234       237
       236       234       237       234       237       238       234       237       239
       234       237       240       238       237       239       238       237       240
       239       237       240       237       240       241       237       240       242
       237       240       243       241       240       242       241       240       243
       242       240       243       240       243       244       240       243       245
       240       243       246       244       243       245       244       243       246
       245       243       246       243       246       247       243       246       248
       243       246       249       247       246       248       247       246       249
       248       246       249       246       249       250       246       249       251
       246       249       252       250       249       251       250       249       252
       251       249       252       249       252       253       249       252       254
       249       252       255       253       252       254       253       252       255
       254       252       255       252       255       256       252       255       257
       252       255       258       256       255       257       256       255       258
       257       255       258       255       258       259       255       258       260
       255       258       261       259       258       260       259       258       261
       260       258       261       258       261       262       258       261       263
       258       261       264       262       261       263       262       261       264
       263       261       264       261       264       265       261       264       266
       261       264       267       265       264       266       265       264       267
       266       264       267       264       267       268       264       267       269
       264       267       270       268       267       269       268       267       270
       269       267       270       272       271       275       272       271       279
       272       271       283       275       271       279       275       271       283
       279       271       283       271       272       273       271       272       274
       271       272       287       273       272       274       273       272       287
       274       272       287       271       275       276       271       275       277
       271       275       278       276       275       277       276       275       278
       277       275       278       271       279       280       271       279       281
       271       279       282       280       279       281       280       279       282
       281       279       282       271       283       284       271       283       285
       271       283       286       284       283       285       284       283       286
       285       283       286       272       287       288       272       287       289
       272       287       293       288       287       289       288       287       293
       289       287       293       291       290       292       291       290       293
       291       290       294       292       290       293       292       290       294
       293       290       294       287       293       290       290       294       295
       294       295       296       294       295       297       294       295       298
       296       295       297       296       295       298       297       295       298
       295       298       299       295       298       300       295       298       306
       299       298       300       299       298       306       300       298       306
       298       300       301       300       301       302       300       301       303
       302       301       303       301       303       304       301       303       305
       301       303       315       304       303       305       304       303       315
       305       303       315       298       306       307       298       306       308
       298       306       309       307       306       308       307       306       309
       308       306       309       306       309       310       309       310       311
       309       310       312       311       310       312       310       312       313
       310       312       314       310       312       362       313       312       314
       313       312       362       314       312       362       303       315       316
       303       315       317       303       315       318       316       315       317
       316       315       318       317       315       318       315       318       319
       315       318       320       315       318       321       319       318       320
       319       318       321       320       318       321       318       321       322
       318       321       323       318       321       324       322       321       323
       322       321       324       323       321       324       321       324       325
       321       324       326       321       324       327       325       324       326
       325       324       327       326       324       327       324       327       328
       324       327       329       324       327       330       328       327       329
       328       327       330       329       327       330       327       330       331
       327       330       332       327       330       333       331       330       332
       331       330       333       332       330       333       330       333       334
       330       333       335       334       333       335       333       335       336
       333       335       337       336       335       337       335       337       338
       335       337       339       335       337       340       338       337       339
       338       337       340       339       337       340       337       340       341
       337       340       342       337       340       343       341       340       342
       341       340       343       342       340       343       340       343       344
       340       343       345       340       343       346       344       343       345
       344       343       346       345       343       346       343       346       347
       343       346       348       343       346       349       347       346       348
       347       346       349       348       346       349       346       349       350
       346       349       351       346       349       352       350       349       351
       350       349       352       351       349       352       349       352       353
       349       352       354       349       352       355       353       352       354
       353       352       355       354       352       355       352       355       356
       352       355       357       352       355       358       356       355       357
       356       355       358       357       355       358       355       358       359
       355       358       360       355       358       361       359       358       360
       359       358       361       360       358       361       312       362       363
       312       362       364       312       362       365       363       362       364
       363       362       365       364       362       365       362       365       366
       362       365       367       362       365       368       366       365       367
       366       365       368       367       365       368       365       368       369
       365       368       370       365       368       371       369       368       370
       369       368       371       370       368       371       368       371       372
       368       371       373       368       371       374       372       371       373
       372       371       374       373       371       374       371       374       375
       371       374       376       371       374       377       375       374       376
       375       374       377       376       374       377       374       377       378
       374       377       379       374       377       380       378       377       379
       378       377       380       379       377       380       377       380       381
       377       380       382       377       380       383       381       380       382
       381       380       383       382       380       383       380       383       384
       380       383       385       380       383       386       384       383       385
       384       383       386       385       383       386       383       386       387
       383       386       388       383       386       389       387       386       388
       387       386       389       388       386       389       386       389       390
       386       389       391       386       389       392       390       389       391
       390       389       392       391       389       392       389       392       393
       389       392       394       389       392       395       393       392       394
       393       392       395       394       392       395       392       395       396
       392       395       397       392       395       398       396       395       397
       396       395       398       397       395       398       395       398       399
       395       398       400       395       398       401       399       398       400
       399       398       401       400       398       401       398       401       402
       398       401       403       398       401       404       402       401       403
       402       401       404       403       401       404       406       405       409
       406       405       413       406       405       417       409       405       413
       409       405       417       413       405       417       405       406       407
       405       406       408       405       406       421       407       406       408
       407       406       421       408       406       421       405       409       410
       405       409       411       405       409       412       410       409       411
       410       409       412       411       409       412       405       413       414
       405       413       415       405       413       416       414       413       415
       414       413       416       415       413       416       405       417       418
       405       417       419       405       417       420       418       417       419
       418       417       420       419       417       420       406       421       422
       406       421       423       406       421       427       422       421       423
       422       421       427       423       421       427       425       424       426
       425       424       427       425       424       428       426       424       427
       426       424       428       427       424       428       421       427       424
       424       428       429       428       429       430       428       429       431
       428       429       432       430       429       431       430       429       432
       431       429       432       429       432       433       429       432       434
       429       432       440       433       432       434       433       432       440
       434       432       440       432       434       435       434       435       436
       434       435       437       436       435       437       435       437       438
       435       437       439       435       437       449       438       437       439
       438       437       449       439       437       449       432       440       441
       432       440       442       432       440       443       441       440       442
       441       440       443       442       440       443       440       443       444
       443       444       445       443       444       446       445       444       446
       444       446       447       444       446       448       444       446       496
       447       446       448       447       446       496       448       446       496
       437       449       450       437       449       451       437       449       452
       450       449       451       450       449       452       451       449       452
       449       452       453       449       452       454       449       452       455
       453       452       454       453       452       455       454       452       455
       452       455       456       452       455       457       452       455       458
       456       455       457       456       455       458       457       455       458
       455       458       459       455       458       460       455       458       461
       459       458       460       459       458       461       460       458       461
       458       461       462       458       461       463       458       461       464
       462       461       463       462       461       464       463       461       464
       461       464       465       461       464       466       461       464       467
       465       464       466       465       464       467       466       464       467
       464       467       468       464       467       469       468       467       469
       467       469       470       467       469       471       470       469       471
       469       471       472       469       471       473       469       471       474
       472       471       473       472       471       474       473       471       474
       471       474       475       471       474       476       471       474       477
       475       474       476       475       474       477       476       474       477
       474       477       478       474       477       479       474       477       480
       478       477       479       478       477       480       479       477       480
       477       480       481       477       480       482       477       480       483
       481       480       482       481       480       483       482       480       483
       480       483       484       480       483       485       480       483       486
       484       483       485       484       483       486       485       483       486
       483       486       487       483       486       488       483       486       489
       487       486       488       487       486       489       488       486       489
       486       489       490       486       489       491       486       489       492
       490       489       491       490       489       492       491       489       492
       489       492       493       489       492       494       489       492       495
       493       492       494       493       492       495       494       492       495
       446       496       497       446       496       498       446       496       499
       497       496       498       497       496       499       498       496       499
       496       499       500       496       499       501       496       499       502
       500       499       501       500       499       502       501       499       502
       499       502       503       499       502       504       499       502       505
       503       502       504       503       502       505       504       502       505
       502       505       506       502       505       507       502       505       508
       506       505       507       506       505       508       507       505       508
       505       508       509       505       508       510       505       508       511
       509       508       510       509       508       511       510       508       511
       508       511       512       508       511       513       508       511       514
       512       511       513       512       511       514       513       511       514
       511       514       515       511       514       516       511       514       517
       515       514       516       515       514       517       516       514       517
       514       517       518       514       517       519       514       517       520
       518       517       519       518       517       520       519       517       520
       517       520       521       517       520       522       517       520       523
       521       520       522       521       520       523       522       520       523
       520       523       524       520       523       525       520       523       526
       524       523       525       524       523       526       525       523       526
       523       526       527       523       526       528       523       526       529
       527       526       528       527       526       529       528       526       529
       526       529       530       526       529       531       526       529       532
       530       529       531       530       529       532       531       529       532
       529       532       533       529       532       534       529       532       535
       533       532       534       533       532       535       534       532       535
       532       535       536       532       535       537       532       535       538
       536       535       537       536       535       538       537       535       538
       540       539       543       540       539       547       540       539       551
       543       539       547       543       539       551       547       539       551
       539       540       541       539       540       542       539       540       555
       541       540       542       541       540       555       542       540       555
       539       543       544       539       543       545       539       543       546
       544       543       545       544       543       546       545       543       546
       539       547       548       539       547       549       539       547       550
       548       547       549       548       547       550       549       547       550
       539       551       552       539       551       553       539       551       554
       552       551       553       552       551       554       553       551       554
       540       555       556       540       555       557       540       555       561
       556       555       557       556       555       561       557       555       561
       559       558       560       559       558       561       559       558       562
       560       558       561       560       558       562       561       558       562
       555       561       558       558       562       563       562       563       564
       562       563       565       562       563       566       564       563       565
       564       563       566       565       563       566       563       566       567
       563       566       568       563       566       574       567       566       568
       567       566       574       568       566       574       566       568       569
       568       569       570       568       569       571       570       569       571
       569       571       572       569       571       573       569       571       583
       572       571       573       572       571       583       573       571       583
       566       574       575       566       574       576       566       574       577
       575       574       576       575       574       577       576       574       577
       574       577       578       577       578       579       577       578       580
       579       578       580       578       580       581       578       580       582
       578       580       630       581       580       582       581       580       630
       582       580       630       571       583       584       571       583       585
       571       583       586       584       583       585       584       583       586
       585       583       586       583       586       587       583       586       588
       583       586       589       587       586       588       587       586       589
       588       586       589       586       589       590       586       589       591
       586       589       592       590       589       591       590       589       592
       591       589       592       589       592       593       589       592       594
       589       592       595       593       592       594       593       592       595
       594       592       595       592       595       596       592       595       597
       592       595       598       596       595       597       596       595       598
       597       595       598       595       598       599       595       598       600
       595       598       601       599       598       600       599       598       601
       600       598       601       598       601       602       598       601       603
       602       601       603       601       603       604       601       603       605
       604       603       605       603       605       606       603       605       607
       603       605       608       606       605       607       606       605       608
       607       605       608       605       608       609       605       608       610
       605       608       611       609       608       610       609       608       611
       610       608       611       608       611       612       608       611       613
       608       611       614       612       611       613       612       611       614
       613       611       614       611       614       615       611       614       616
       611       614       617       615       614       616       615       614       617
       616       614       617       614       617       618       614       617       619
       614       617       620       618       617       619       618       617       620
       619       617       620       617       620       621       617       620       622
       617       620       623       621       620       622       621       620       623
       622       620       623       620       623       624       620       623       625
       620       623       626       624       623       625       624       623       626
       625       623       626       623       626       627       623       626       628
       623       626       629       627       626       628       627       626       629
       628       626       629       580       630       631       580       630       632
       580       630       633       631       630       632       631       630       633
       632       630       633       630       633       634       630       633       635
       630       633       636       634       633       635       634       633       636
       635       633       636       633       636       637       633       636       638
       633       636       639       637       636       638       637       636       639
       638       636       639       636       639       640       636       639       641
       636       639       642       640       639       641       640       639       642
       641       639       642       639       642       643       639       642       644
       639       642       645       643       642       644       643       642       645
       644       642       645       642       645       646       642       645       647
       642       645       648       646       645       647       646       645       648
       647       645       648       645       648       649       645       648       650
       645       648       651       649       648       650       649       648       651
       650       648       651       648       651       652       648       651       653
       648       651       654       652       651       653       652       651       654
       653       651       654       651       654       655       651       654       656
       651       654       657       655       654       656       655       654       657
       656       654       657       654       657       658       654       657       659
       654       657       660       658       657       659       658       657       660
       659       657       660       657       660       661       657       660       662
       657       660       663       661       660       662       661       660       663
       662       660       663       660       663       664       660       663       665
       660       663       666       664       663       665       664       663       666
       665       663       666       663       666       667       663       666       668
       663       666       669       667       666       668       667       666       669
       668       666       669       666       669       670       666       669       671
       666       669       672       670       669       671       670       669       672
       671       669       672       674       673       677       674       673       681
       674       673       685       677       673       681       677       673       685
       681       673       685       673       674       675       673       674       676
       673       674       689       675       674       676       675       674       689
       676       674       689       673       677       678       673       677       679
       673       677       680       678       677       679       678       677       680
       679       677       680       673       681       682       673       681       683
       673       681       684       682       681       683       682       681       684
       683       681       684       673       685       686       673       685       687
       673       685       688       686       685       687       686       685       688
       687       685       688       674       689       690       674       689       691
       674       689       695       690       689       691       690       689       695
       691       689       695       693       692       694       693       692       695
       693       692       696       694       692       695       694       692       696
       695       692       696       689       695       692       692       696       697
       696       697       698       696       697       699       696       697       700
       698       697       699       698       697       700       699       697       700
       697       700       701       697       700       702       697       700       708
       701       700       702       701       700       708       702       700       708
       700       702       703       702       703       704       702       703       705
       704       703       705       703       705       706       703       705       707
       703       705       717       706       705       707       706       705       717
       707       705       717       700       708       709       700       708       710
       700       708       711       709       708       710       709       708       711
       710       708       711       708       711       712       711       712       713
       711       712       714       713       712       714       712       714       715
       712       714       716       712       714       764       715       714       716
       715       714       764       716       714       764       705       717       718
       705       717       719       705       717       720       718       717       719
       718       717       720       719       717       720       717       720       721
       717       720       722       717       720       723       721       720       722
       721       720       723       722       720       723       720       723       724
       720       723       725       720       723       726       724       723       725
       724       723       726       725       723       726       723       726       727
       723       726       728       723       726       729       727       726       728
       727       726       729       728       726       729       726       729       730
       726       729       731       726       729       732       730       729       731
       730       729       732       731       729       732       729       732       733
       729       732       734       729       732       735       733       732       734
       733       732       735       734       732       735       732       735       736
       732       735       737       736       735       737       735       737       738
       735       737       739       738       737       739       737       739       740
       737       739       741       737       739       742       740       739       741
       740       739       742       741       739       742       739       742       743
       739       742       744       739       742       745       743       742       744
       743       742       745       744       742       745       742       745       746
       742       745       747       742       745       748       746       745       747
       746       745       748       747       745       748       745       748       749
       745       748       750       745       748       751       749       748       750
       749       748       751       750       748       751       748       751       752
       748       751       753       748       751       754       752       751       753
       752       751       754       753       751       754       751       754       755
       751       754       756       751       754       757       755       754       756
       755       754       757       756       754       757       754       757       758
       754       757       759       754       757       760       758       757       759
       758       757       760       759       757       760       757       760       761
       757       760       762       757       760       763       761       760       762
       761       760       763       762       760       763       714       764       765
       714       764       766       714       764       767       765       764       766
       765       764       767       766       764       767       764       767       768
       764       767       769       764       767       770       768       767       769
       768       767       770       769       767       770       767       770       771
       767       770       772       767       770       773       771       770       772
       771       770       773       772       770       773       770       773       774
       770       773       775       770       773       776       774       773       775
       774       773       776       775       773       776       773       776       777
       773       776       778       773       776       779       777       776       778
       777       776       779       778       776       779       776       779       780
       776       779       781       776       779       782       780       779       781
       780       779       782       781       779       782       779       782       783
       779       782       784       779       782       785       783       782       784
       783       782       785       784       782       785       782       785       786
       782       785       787       782       785       788       786       785       787
       786       785       788       787       785       788       785       788       789
       785       788       790       785       788       791       789       788       790
       789       788       791       790       788       791       788       791       792
       788       791       793       788       791       794       792       791       793
       792       791       794       793       791       794       791       794       795
       791       794       796       791       794       797       795       794       796
       795       794       797       796       794       797       794       797       798
       794       797       799       794       797       800       798       797       799
       798       797       800       799       797       800       797       800       801
       797       800       802       797       800       803       801       800       802
       801       800       803       802       800       803       800       803       804
       800       803       805       800       803       806       804       803       805
       804       803       806       805       803       806       808       807       809
       808       807       810       808       807       811       809       807       810
       809       807       811       810       807       811       807       811       812
       807       811       813       807       811       816       812       811       813
       812       811       816       813       811       816       811       813       814
       811       813       815       814       813       815       811       816       817
       811       816       818       811       816       822       817       816       818
       817       816       822       818       816       822       820       819       821
       820       819       822       820       819       823       821       819       822
       821       819       823       822       819       823       816       822       819
       819       823       824       823       824       825       823       824       826
       823       824       827       825       824       826       825       824       827
       826       824       827       824       827       828       824       827       829
       824       827       835       828       827       829       828       827       835
       829       827       835       827       829       830       829       830       831
       829       830       832       831       830       832       830       832       833
       830       832       834       830       832       844       833       832       834
       833       832       844       834       832       844       827       835       836
       827       835       837       827       835       838       836       835       837
       836       835       838       837       835       838       835       838       839
       838       839       840       838       839       841       840       839       841
       839       841       842       839       841       843       839       841       891
       842       841       843       842       841       891       843       841       891
       832       844       845       832       844       846       832       844       847
       845       844       846       845       844       847       846       844       847
       844       847       848       844       847       849       844       847       850
       848       847       849       848       847       850       849       847       850
       847       850       851       847       850       852       847       850       853
       851       850       852       851       850       853       852       850       853
       850       853       854       850       853       855       850       853       856
       854       853       855       854       853       856       855       853       856
       853       856       857       853       856       858       853       856       859
       857       856       858       857       856       859       858       856       859
       856       859       860       856       859       861       856       859       862
       860       859       861       860       859       862       861       859       862
       859       862       863       859       862       864       863       862       864
       862       864       865       862       864       866       865       864       866
       864       866       867       864       866       868       864       866       869
       867       866       868       867       866       869       868       866       869
       866       869       870       866       869       871       866       869       872
       870       869       871       870       869       872       871       869       872
       869       872       873       869       872       874       869       872       875
       873       872       874       873       872       875       874       872       875
       872       875       876       872       875       877       872       875       878
       876       875       877       876       875       878       877       875       878
       875       878       879       875       878       880       875       878       881
       879       878       880       879       878       881       880       878       881
       878       881       882       878       881       883       878       881       884
       882       881       883       882       881       884       883       881       884
       881       884       885       881       884       886       881       884       887
       885       884       886       885       884       887       886       884       887
       884       887       888       884       887       889       884       887       890
       888       887       889       888       887       890       889       887       890
       841       891       892       841       891       893       841       891       894
       892       891       893       892       891       894       893       891       894
       891       894       895       891       894       896       891       894       897
       895       894       896       895       894       897       896       894       897
       894       897       898       894       897       899       894       897       900
       898       897       899       898       897       900       899       897       900
       897       900       901       897       900       902       897       900       903
       901       900       902       901       900       903       902       900       903
       900       903       904       900       903       905       900       903       906
       904       903       905       904       903       906       905       903       906
       903       906       907       903       906       908       903       906       909
       907       906       908       907       906       909       908       906       909
       906       909       910       906       909       911       906       909       912
       910       909       911       910       909       912       911       909       912
       909       912       913       909       912       914       909       912       915
       913       912       914       913       912       915       914       912       915
       912       915       916       912       915       917       912       915       918
       916       915       917       916       915       918       917       915       918
       915       918       919       915       918       920       915       918       921
       919       918       920       919       918       921       920       918       921
       918       921       922       918       921       923       918       921       924
       922       921       923       922       921       924       923       921       924
       921       924       925       921       924       926       921       924       927
       925       924       926       925       924       927       926       924       927
       924       927       928       924       927       929       924       927       930
       928       927       929       928       927       930       929       927       930
       927       930       931       927       930       932       927       930       933
       931       930       932       931       930       933       932       930       933
       935       934       938       935       934       942       935       934       946
       938       934       942       938       934       946       942       934       946
       934       935       936       934       935       937       934       935       950
       936       935       937       936       935       950       937       935       950
       934       938       939       934       938       940       934       938       941
       939       938       940       939       938       941       940       938       941
       934       942       943       934       942       944       934       942       945
       943       942       944       943       942       945       944       942       945
       934       946       947       934       946       948       934       946       949
       947       946       948       947       946       949       948       946       949
       935       950       951       935       950       952       935       950       956
       951       950       952       951       950       956       952       950       956
       954       953       955       954       953       956       954       953       957
       955       953       956       955       953       957       956       953       957
       950       956       953       953       957       958       957       958       959
       957       958       960       957       958       961       959       958       960
       959       958       961       960       958       961       958       961       962
       958       961       963       958       961       969       962       961       963
       962       961       969       963       961       969       961       963       964
       963       964       965       963       964       966       965       964       966
       964       966       967       964       966       968       964       966       978
       967       966       968       967       966       978       968       966       978
       961       969       970       961       969       971       961       969       972
       970       969       971       970       969       972       971       969       972
       969       972       973       972       973       974       972       973       975
       974       973       975       973       975       976       973       975       977
       973       975      1025       976       975       977       976       975      1025
       977       975      1025       966       978       979       966       978       980
       966       978       981       979       978       980       979       978       981
       980       978       981       978       981       982       978       981       983
       978       981       984       982       981       983       982       981       984
       983       981       984       981       984       985       981       984       986
       981       984       987       985       984       986       985       984       987
       986       984       987       984       987       988       984       987       989
       984       987       990       988       987       989       988       987       990
       989       987       990       987       990       991       987       990       992
       987       990       993       991       990       992       991       990       993
       992       990       993       990       993       994       990       993       995
       990       993       996       994       993       995       994       993       996
       995       993       996       993       996       997       993       996       998
       997       996       998       996       998       999       996       998      1000
       999       998      1000       998      1000      1001       998      1000      1002
       998      1000      1003      1001      1000      1002      1001      1000      1003
      1002      1000      1003      1000      1003      1004      1000      1003      1005
      1000      1003      1006      1004      1003      1005      1004      1003      1006
      1005      1003      1006      1003      1006      1007      1003      1006      1008
      1003      1006      1009      1007      1006      1008      1007      1006      1009
      1008      1006      1009      1006      1009      1010      1006      1009      1011
      1006      1009      1012      1010      1009      1011      1010      1009      1012
      1011      1009      1012      1009      1012      1013      1009      1012      1014
      1009      1012      1015      1013      1012      1014      1013      1012      1015
      1014      1012      1015      1012      1015      1016      1012      1015      1017
      1012      1015      1018      1016      1015      1017      1016      1015      1018
      1017      1015      1018      1015      1018      1019      1015      1018      1020
      1015      1018      1021      1019      1018      1020      1019      1018      1021
      1020      1018      1021      1018      1021      1022      1018      1021      1023
      1018      1021      1024      1022      1021      1023      1022      1021      1024
      1023      1021      1024       975      1025      1026       975      1025      1027
       975      1025      1028      1026      1025      1027      1026      1025      1028
      1027      1025      1028      1025      1028      1029      1025      1028      1030
      1025      1028      1031      1029      1028      1030      1029      1028      1031
      1030      1028      1031      1028      1031      1032      1028      1031      1033
      1028      1031      1034      1032      1031      1033      1032      1031      1034
      1033      1031      1034      1031      1034      1035      1031      1034      1036
      1031      1034      1037      1035      1034      1036      1035      1034      1037
      1036      1034      1037      1034      1037      1038      1034      1037      1039
      1034      1037      1040      1038      1037      1039      1038      1037      1040
      1039      1037      1040      1037      1040      1041      1037      1040      1042
      1037      1040      1043      1041      1040      1042      1041      1040      1043
      1042      1040      1043      1040      1043      1044      1040      1043      1045
      1040      1043      1046      1044      1043      1045      1044      1043      1046
      1045      1043      1046      1043      1046      1047      1043      1046      1048
      1043      1046      1049      1047      1046      1048      1047      1046      1049
      1048      1046      1049      1046      1049      1050      1046      1049      1051
      1046      1049      1052      1050      1049      1051      1050      1049      1052
      1051      1049      1052      1049      1052      1053      1049      1052      1054
      1049      1052      1055      1053      1052      1054      1053      1052      1055
      1054      1052      1055      1052      1055      1056      1052      1055      1057
      1052      1055      1058      1056      1055      1057      1056      1055      1058
      1057      1055      1058      1055      1058      1059      1055      1058      1060
      1055      1058      1061      1059      1058      1060      1059      1058      1061
      1060      1058      1061      1058      1061      1062      1058      1061      1063
      1058      1061      1064      1062      1061      1063      1062      1061      1064
      1063      1061      1064      1061      1064      1065      1061      1064      1066
      1061      1064      1067      1065      1064      1066      1065      1064      1067
      1066      1064      1067      1069      1068      1070      1069      1068      1071
      1069      1068      1072      1070      1068      1071      1070      1068      1072
      1071      1068      1072      1068      1072      1073      1068      1072      1074
      1068      1072      1077      1073      1072      1074      1073      1072      1077
      1074      1072      1077      1072      1074      1075      1072      1074      1076
      1075      1074      1076      1072      1077      1078      1072      1077      1079
      1072      1077      1083      1078      1077      1079      1078      1077      1083
      1079      1077      1083      1081      1080      1082      1081      1080      1083
      1081      1080      1084      1082      1080      1083      1082      1080      1084
      1083      1080      1084      1077      1083      1080      1080      1084      1085
      1084      1085      1086      1084      1085      1087      1084      1085      1088
      1086      1085      1087      1086      1085      1088      1087      1085      1088
      1085      1088      1089      1085      1088      1090      1085      1088      1096
      1089      1088      1090      1089      1088      1096      1090      1088      1096
      1088      1090      1091      1090      1091      1092      1090      1091      1093
      1092      1091      1093      1091      1093      1094      1091      1093      1095
      1091      1093      1105      1094      1093      1095      1094      1093      1105
      1095      1093      1105      1088      1096      1097      1088      1096      1098
      1088      1096      1099      1097      1096      1098      1097      1096      1099
      1098      1096      1099      1096      1099      1100      1099      1100      1101
      1099      1100      1102      1101      1100      1102      1100      1102      1103
      1100      1102      1104      1100      1102      1152      1103      1102      1104
      1103      1102      1152      1104      1102      1152      1093      1105      1106
      1093      1105      1107      1093      1105      1108      1106      1105      1107
      1106      1105      1108      1107      1105      1108      1105      1108      1109
      1105      1108      1110      1105      1108      1111      1109      1108      1110
      1109      1108      1111      1110      1108      1111      1108      1111      1112
      1108      1111      1113      1108      1111      1114      1112      1111      1113
      1112      1111      1114      1113      1111      1114      1111      1114      1115
      1111      1114      1116      1111      1114      1117      1115      1114      1116
      1115      1114      1117      1116      1114      1117      1114      1117      1118
      1114      1117      1119      1114      1117      1120      1118      1117      1119
      1118      1117      1120      1119      1117      1120      1117      1120      1121
      1117      1120      1122      1117      1120      1123      1121      1120      1122
      1121      1120      1123      1122      1120      1123      1120      1123      1124
      1120      1123      1125      1124      1123      1125      1123      1125      1126
      1123      1125      1127      1126      1125      1127      1125      1127      1128
      1125      1127      1129      1125      1127      1130      1128      1127      1129
      1128      1127      1130      1129      1127      1130      1127      1130      1131
      1127      1130      1132      1127      1130      1133      1131      1130      1132
      1131      1130      1133      1132      1130      1133      1130      1133      1134
      1130      1133      1135      1130      1133      1136      1134      1133      1135
      1134      1133      1136      1135      1133      1136      1133      1136      1137
      1133      1136      1138      1133      1136      1139      1137      1136      1138
      1137      1136      1139      1138      1136      1139      1136      1139      1140
      1136      1139      1141      1136      1139      1142      1140      1139      1141
      1140      1139      1142      1141      1139      1142      1139      1142      1143
      1139      1142      1144      1139      1142      1145      1143      1142      1144
      1143      1142      1145      1144      1142      1145      1142      1145      1146
      1142      1145      1147      1142      1145      1148      1146      1145      1147
      1146      1145      1148      1147      1145      1148      1145      1148      1149
      1145      1148      1150      1145      1148      1151      1149      1148      1150
      1149      1148      1151      1150      1148      1151      1102      1152      1153
      1102      1152      1154      1102      1152      1155      1153      1152      1154
      1153      1152      1155      1154      1152      1155      1152      1155      1156
      1152      1155      1157      1152      1155      1158      1156      1155      1157
      1156      1155      1158      1157      1155      1158      1155      1158      1159
      1155      1158      1160      1155      1158      1161      1159      1158      1160
      1159      1158      1161      1160      1158      1161      1158      1161      1162
      1158      1161      1163      1158      1161      1164      1162      1161      1163
      1162      1161      1164      1163      1161      1164      1161      1164      1165
      1161      1164      1166      1161      1164      1167      1165      1164      1166
      1165      1164      1167      1166      1164      1167      1164      1167      1168
      1164      1167      1169      1164      1167      1170      1168      1167      1169
      1168      1167      1170      1169      1167      1170      1167      1170      1171
      1167      1170      1172      1167      1170      1173      1171      1170      1172
      1171      1170      1173      1172      1170      1173      1170      1173      1174
      1170      1173      1175      1170      1173      1176      1174      1173      1175
      1174      1173      1176      1175      1173      1176      1173      1176      1177
      1173      1176      1178      1173      1176      1179      1177      1176      1178
      1177      1176      1179      1178      1176      1179      1176      1179      1180
      1176      1179      1181      1176      1179      1182      1180      1179      1181
      1180      1179      1182      1181      1179      1182      1179      1182      1183
      1179      1182      1184      1179      1182      1185      1183      1182      1184
      1183      1182      1185      1184      1182      1185      1182      1185      1186
      1182      1185      1187      1182      1185      1188      1186      1185      1187
      1186      1185      1188      1187      1185      1188      1185      1188      1189
      1185      1188      1190      1185      1188      1191      1189      1188      1190
      1189      1188      1191      1190      1188      1191      1188      1191      1192
      1188      1191      1193      1188      1191      1194      1192      1191      1193
      1192      1191      1194      1193      1191      1194      1196      1195      1199
      1196      1195      1203      1196      1195      1207      1199      1195      1203
      1199      1195      1207      1203      1195      1207      1195      1196      1197
      1195      1196      1198      1195      1196      1211      1197      1196      1198
      1197      1196      1211      1198      1196      1211      1195      1199      1200
      1195      1199      1201      1195      1199      1202      1200      1199      1201
      1200      1199      1202      1201      1199      1202      1195      1203      1204
      1195      1203      1205      1195      1203      1206      1204      1203      1205
      1204      1203      1206      1205      1203      1206      1195      1207      1208
      1195      1207      1209      1195      1207      1210      1208      1207      1209
      1208      1207      1210      1209      1207      1210      1196      1211      1212
      1196      1211      1213      1196      1211      1217      1212      1211      1213
      1212      1211      1217      1213      1211      1217      1215      1214      1216
      1215      1214      1217      1215      1214      1218      1216      1214      1217
      1216      1214      1218      1217      1214      1218      1211      1217      1214
      1214      1218      1219      1218      1219      1220      1218      1219      1221
      1218      1219      1222      1220      1219      1221      1220      1219      1222
      1221      1219      1222      1219      1222      1223      1219      1222      1224
      1219      1222      1230      1223      1222      1224      1223      1222      1230
      1224      1222      1230      1222      1224      1225      1224      1225      1226
      1224      1225      1227      1226      1225      1227      1225      1227      1228
      1225      1227      1229      1225      1227      1239      1228      1227      1229
      1228      1227      1239      1229      1227      1239      1222      1230      1231
      1222      1230      1232      1222      1230      1233      1231      1230      1232
      1231      1230      1233      1232      1230      1233      1230      1233      1234
      1233      1234      1235      1233      1234      1236      1235      1234      1236
      1234      1236      1237      1234      1236      1238      1234      1236      1286
      1237      1236      1238      1237      1236      1286      1238      1236      1286
      1227      1239      1240      1227      1239      1241      1227      1239      1242
      1240      1239      1241      1240      1239      1242      1241      1239      1242
      1239      1242      1243      1239      1242      1244      1239      1242      1245
      1243      1242      1244      1243      1242      1245      1244      1242      1245
      1242      1245      1246      1242      1245      1247      1242      1245      1248
      1246      1245      1247      1246      1245      1248      1247      1245      1248
      1245      1248      1249      1245      1248      1250      1245      1248      1251
      1249      1248      1250      1249      1248      1251      1250      1248      1251
      1248      1251      1252      1248      1251      1253      1248      1251      1254
      1252      1251      1253      1252      1251      1254      1253      1251      1254
      1251      1254      1255      1251      1254      1256      1251      1254      1257
      1255      1254      1256      1255      1254      1257      1256      1254      1257
      1254      1257      1258      1254      1257      1259      1258      1257      1259
      1257      1259      1260      1257      1259      1261      1260      1259      1261
      1259      1261      1262      1259      1261      1263      1259      1261      1264
      1262      1261      1263      1262      1261      1264      1263      1261      1264
      1261      1264      1265      1261      1264      1266      1261      1264      1267
      1265      1264      1266      1265      1264      1267      1266      1264      1267
      1264      1267      1268      1264      1267      1269      1264      1267      1270
      1268      1267      1269      1268      1267      1270      1269      1267      1270
      1267      1270      1271      1267      1270      1272      1267      1270      1273
      1271      1270      1272      1271      1270      1273      1272      1270      1273
      1270      1273      1274      1270      1273      1275      1270      1273      1276
      1274      1273      1275      1274      1273      1276      1275      1273      1276
      1273      1276      1277      1273      1276      1278      1273      1276      1279
      1277      1276      1278      1277      1276      1279      1278      1276      1279
      1276      1279      1280      1276      1279      1281      1276      1279      1282
      1280      1279      1281      1280      1279      1282      1281      1279      1282
      1279      1282      1283      1279      1282      1284      1279      1282      1285
      1283      1282      1284      1283      1282      1285      1284      1282      1285
      1236      1286      1287      1236      1286      1288      1236      1286      1289
      1287      1286      1288      1287      1286      1289      1288      1286      1289
      1286      1289      1290      1286      1289      1291      1286      1289      1292
      1290      1289      1291      1290      1289      1292      1291      1289      1292
      1289      1292      1293      1289      1292      1294      1289      1292      1295
      1293      1292      1294      1293      1292      1295      1294      1292      1295
      1292      1295      1296      1292      1295      1297      1292      1295      1298
      1296      1295      1297      1296      1295      1298      1297      1295      1298
      1295      1298      1299      1295      1298      1300      1295      1298      1301
      1299      1298      1300      1299      1298      1301      1300      1298      1301
      1298      1301      1302      1298      1301      1303      1298      1301      1304
      1302      1301      1303      1302      1301      1304      1303      1301      1304
      1301      1304      1305      1301      1304      1306      1301      1304      1307
      1305      1304      1306      1305      1304      1307      1306      1304      1307
      1304      1307      1308      1304      1307      1309      1304      1307      1310
      1308      1307      1309      1308      1307      1310      1309      1307      1310
      1307      1310      1311      1307      1310      1312      1307      1310      1313
      1311      1310      1312      1311      1310      1313      1312      1310      1313
      1310      1313      1314      1310      1313      1315      1310      1313      1316
      1314      1313      1315      1314      1313      1316      1315      1313      1316
      1313      1316      1317      1313      1316      1318      1313      1316      1319
      1317      1316      1318      1317      1316      1319      1318      1316      1319
      1316      1319      1320      1316      1319      1321      1316      1319      1322
      1320      1319      1321      1320      1319      1322      1321      1319      1322
      1319      1322      1323      1319      1322      1324      1319      1322      1325
      1323      1322      1324      1323      1322      1325      1324      1322      1325
      1322      1325      1326      1322      1325      1327      1322      1325      1328
      1326      1325      1327      1326      1325      1328      1327      1325      1328
      1330      1329      1333      1330      1329      1337      1330      1329      1341
      1333      1329      1337      1333      1329      1341      1337      1329      1341
      1329      1330      1331      1329      1330      1332      1329      1330      1345
      1331      1330      1332      1331      1330      1345      1332      1330      1345
      1329      1333      1334      1329      1333      1335      1329      1333      1336
      1334      1333      1335      1334      1333      1336      1335      1333      1336
      1329      1337      1338      1329      1337      1339      1329      1337      1340
      1338      1337      1339      1338      1337      1340      1339      1337      1340
      1329      1341      1342      1329      1341      1343      1329      1341      1344
      1342      1341      1343      1342      1341      1344      1343      1341      1344
      1330      1345      1346      1330      1345      1347      1330      1345      1351
      1346      1345      1347      1346      1345      1351      1347      1345      1351
      1349      1348      1350      1349      1348      1351      1349      1348      1352
      1350      1348      1351      1350      1348      1352      1351      1348      1352
      1345      1351      1348      1348      1352      1353      1352      1353      1354
      1352      1353      1355      1352      1353      1356      1354      1353      1355
      1354      1353      1356      1355      1353      1356      1353      1356      1357
      1353      1356      1358      1353      1356      1364      1357      1356      1358
      1357      1356      1364      1358      1356      1364      1356      1358      1359
      1358      1359      1360      1358      1359      1361      1360      1359      1361
      1359      1361      1362      1359      1361      1363      1359      1361      1373
      1362      1361      1363      1362      1361      1373      1363      1361      1373
      1356      1364      1365      1356      1364      1366      1356      1364      1367
      1365      1364      1366      1365      1364      1367      1366      1364      1367
      1364      1367      1368      1367      1368      1369      1367      1368      1370
      1369      1368      1370      1368      1370      1371      1368      1370      1372
      1368      1370      1420      1371      1370      1372      1371      1370      1420
      1372      1370      1420      1361      1373      1374      1361      1373      1375
      1361      1373      1376      1374      1373      1375      1374      1373      1376
      1375      1373      1376      1373      1376      1377      1373      1376      1378
      1373      1376      1379      1377      1376      1378      1377      1376      1379
      1378      1376      1379      1376      1379      1380      1376      1379      1381
      1376      1379      1382      1380      1379      1381      1380      1379      1382
      1381      1379      1382      1379      1382      1383      1379      1382      1384
      1379      1382      1385      1383      1382      1384      1383      1382      1385
      1384      1382      1385      1382      1385      1386      1382      1385      1387
      1382      1385      1388      1386      1385      1387      1386      1385      1388
      1387      1385      1388      1385      1388      1389      1385      1388      1390
      1385      1388      1391      1389      1388      1390      1389      1388      1391
      1390      1388      1391      1388      1391      1392      1388      1391      1393
      1392      1391      1393      1391      1393      1394      1391      1393      1395
      1394      1393      1395      1393      1395      1396      1393      1395      1397
      1393      1395      1398      1396      1395      1397      1396      1395      1398
      1397      1395      1398      1395      1398      1399      1395      1398      1400
      1395      1398      1401      1399      1398      1400      1399      1398      1401
      1400      1398      1401      1398      1401      1402      1398      1401      1403
      1398      1401      1404      1402      1401      1403      1402      1401      1404
      1403      1401      1404      1401      1404      1405      1401      1404      1406
      1401      1404      1407      1405      1404      1406      1405      1404      1407
      1406      1404      1407      1404      1407      1408      1404      1407      1409
      1404      1407      1410      1408      1407      1409      1408      1407      1410
      1409      1407      1410      1407      1410      1411      1407      1410      1412
      1407      1410      1413      1411      1410      1412      1411      1410      1413
      1412      1410      1413      1410      1413      1414      1410      1413      1415
      1410      1413      1416      1414      1413      1415      1414      1413      1416
      1415      1413      1416      1413      1416      1417      1413      1416      1418
      1413      1416      1419      1417      1416      1418      1417      1416      1419
      1418      1416      1419      1370      1420      1421      1370      1420      1422
      1370      1420      1423      1421      1420      1422      1421      1420      1423
      1422      1420      1423      1420      1423      1424      1420      1423      1425
      1420      1423      1426      1424      1423      1425      1424      1423      1426
      1425      1423      1426      1423      1426      1427      1423      1426      1428
      1423      1426      1429      1427      1426      1428      1427      1426      1429
      1428      1426      1429      1426      1429      1430      1426      1429      1431
      1426      1429      1432      1430      1429      1431      1430      1429      1432
      1431      1429      1432      1429      1432      1433      1429      1432      1434
      1429      1432      1435      1433      1432      1434      1433      1432      1435
      1434      1432      1435      1432      1435      1436      1432      1435      1437
      1432      1435      1438      1436      1435      1437      1436      1435      1438
      1437      1435      1438      1435      1438      1439      1435      1438      1440
      1435      1438      1441      1439      1438      1440      1439      1438      1441
      1440      1438      1441      1438      1441      1442      1438      1441      1443
      1438      1441      1444      1442      1441      1443      1442      1441      1444
      1443      1441      1444      1441      1444      1445      1441      1444      1446
      1441      1444      1447      1445      1444      1446      1445      1444      1447
      1446      1444      1447      1444      1447      1448      1444      1447      1449
      1444      1447      1450      1448      1447      1449      1448      1447      1450
      1449      1447      1450      1447      1450      1451      1447      1450      1452
      1447      1450      1453      1451      1450      1452      1451      1450      1453
      1452      1450      1453      1450      1453      1454      1450      1453      1455
      1450      1453      1456      1454      1453      1455      1454      1453      1456
      1455      1453      1456      1453      1456      1457      1453      1456      1458
      1453      1456      1459      1457      1456      1458      1457      1456      1459
      1458      1456      1459      1456      1459      1460      1456      1459      1461
      1456      1459      1462      1460      1459      1461      1460      1459      1462
      1461      1459      1462      1464      1463      1467      1464      1463      1471
      1464      1463      1475      1467      1463      1471      1467      1463      1475
      1471      1463      1475      1463      1464      1465      1463      1464      1466
      1463      1464      1479      1465      1464      1466      1465      1464      1479
      1466      1464      1479      1463      1467      1468      1463      1467      1469
      1463      1467      1470      1468      1467      1469      1468      1467      1470
      1469      1467      1470      1463      1471      1472      1463      1471      1473
      1463      1471      1474      1472      1471      1473      1472      1471      1474
      1473      1471      1474      1463      1475      1476      1463      1475      1477
      1463      1475      1478      1476      1475      1477      1476      1475      1478
      1477      1475      1478      1464      1479      1480      1464      1479      1481
      1464      1479      1485      1480      1479      1481      1480      1479      1485
      1481      1479      1485      1483      1482      1484      1483      1482      1485
      1483      1482      1486      1484      1482      1485      1484      1482      1486
      1485      1482      1486      1479      1485      1482      1482      1486      1487
      1486      1487      1488      1486      1487      1489      1486      1487      1490
      1488      1487      1489      1488      1487      1490      1489      1487      1490
      1487      1490      1491      1487      1490      1492      1487      1490      1498
      1491      1490      1492      1491      1490      1498      1492      1490      1498
      1490      1492      1493      1492      1493      1494      1492      1493      1495
      1494      1493      1495      1493      1495      1496      1493      1495      1497
      1493      1495      1507      1496      1495      1497      1496      1495      1507
      1497      1495      1507      1490      1498      1499      1490      1498      1500
      1490      1498      1501      1499      1498      1500      1499      1498      1501
      1500      1498      1501      1498      1501      1502      1501      1502      1503
      1501      1502      1504      1503      1502      1504      1502      1504      1505
      1502      1504      1506      1502      1504      1554      1505      1504      1506
      1505      1504      1554      1506      1504      1554      1495      1507      1508
      1495      1507      1509      1495      1507      1510      1508      1507      1509
      1508      1507      1510      1509      1507      1510      1507      1510      1511
      1507      1510      1512      1507      1510      1513      1511      1510      1512
      1511      1510      1513      1512      1510      1513      1510      1513      1514
      1510      1513      1515      1510      1513      1516      1514      1513      1515
      1514      1513      1516      1515      1513      1516      1513      1516      1517
      1513      1516      1518      1513      1516      1519      1517      1516      1518
      1517      1516      1519      1518      1516      1519      1516      1519      1520
      1516      1519      1521      1516      1519      1522      1520      1519      1521
      1520      1519      1522      1521      1519      1522      1519      1522      1523
      1519      1522      1524      1519      1522      1525      1523      1522      1524
      1523      1522      1525      1524      1522      1525      1522      1525      1526
      1522      1525      1527      1526      1525      1527      1525      1527      1528
      1525      1527      1529      1528      1527      1529      1527      1529      1530
      1527      1529      1531      1527      1529      1532      1530      1529      1531
      1530      1529      1532      1531      1529      1532      1529      1532      1533
      1529      1532      1534      1529      1532      1535      1533      1532      1534
      1533      1532      1535      1534      1532      1535      1532      1535      1536
      1532      1535      1537      1532      1535      1538      1536      1535      1537
      1536      1535      1538      1537      1535      1538      1535      1538      1539
      1535      1538      1540      1535      1538      1541      1539      1538      1540
      1539      1538      1541      1540      1538      1541      1538      1541      1542
      1538      1541      1543      1538      1541      1544      1542      1541      1543
      1542      1541      1544      1543      1541      1544      1541      1544      1545
      1541      1544      1546      1541      1544      1547      1545      1544      1546
      1545      1544      1547      1546      1544      1547      1544      1547      1548
      1544      1547      1549      1544      1547      1550      1548      1547      1549
      1548      1547      1550      1549      1547      1550      1547      1550      1551
      1547      1550      1552      1547      1550      1553      1551      1550      1552
      1551      1550      1553      1552      1550      1553      1504      1554      1555
      1504      1554      1556      1504      1554      1557      1555      1554      1556
      1555      1554      1557      1556      1554      1557      1554      1557      1558
      1554      1557      1559      1554      1557      1560      1558      1557      1559
      1558      1557      1560      1559      1557      1560      1557      1560      1561
      1557      1560      1562      1557      1560      1563      1561      1560      1562
      1561      1560      1563      1562      1560      1563      1560      1563      1564
      1560      1563      1565      1560      1563      1566      1564      1563      1565
      1564      1563      1566      1565      1563      1566      1563      1566      1567
      1563      1566      1568      1563      1566      1569      1567      1566      1568
      1567      1566      1569      1568      1566      1569      1566      1569      1570
      1566      1569      1571      1566      1569      1572      1570      1569      1571
      1570      1569      1572      1571      1569      1572      1569      1572      1573
      1569      1572      1574      1569      1572      1575      1573      1572      1574
      1573      1572      1575      1574      1572      1575      1572      1575      1576
      1572      1575      1577      1572      1575      1578      1576      1575      1577
      1576      1575      1578      1577      1575      1578      1575      1578      1579
      1575      1578      1580      1575      1578      1581      1579      1578      1580
      1579      1578      1581      1580      1578      1581      1578      1581      1582
      1578      1581      1583      1578      1581      1584      1582      1581      1583
      1582      1581      1584      1583      1581      1584      1581      1584      1585
      1581      1584      1586      1581      1584      1587      1585      1584      1586
      1585      1584      1587      1586      1584      1587      1584      1587      1588
      1584      1587      1589      1584      1587      1590      1588      1587      1589
      1588      1587      1590      1589      1587      1590      1587      1590      1591
      1587      1590      1592      1587      1590      1593      1591      1590      1592
      1591      1590      1593      1592      1590      1593      1590      1593      1594
      1590      1593      1595      1590      1593      1596      1594      1593      1595
      1594      1593      1596      1595      1593      1596      1598      1597      1601
      1598      1597      1605      1598      1597      1609      1601      1597      1605
      1601      1597      1609      1605      1597      1609      1597      1598      1599
      1597      1598      1600      1597      1598      1613      1599      1598      1600
      1599      1598      1613      1600      1598      1613      1597      1601      1602
      1597      1601      1603      1597      1601      1604      1602      1601      1603
      1602      1601      1604      1603      1601      1604      1597      1605      1606
      1597      1605      1607      1597      1605      1608      1606      1605      1607
      1606      1605      1608      1607      1605      1608      1597      1609      1610
      1597      1609      1611      1597      1609      1612      1610      1609      1611
      1610      1609      1612      1611      1609      1612      1598      1613      1614
      1598      1613      1615      1598      1613      1619      1614      1613      1615
      1614      1613      1619      1615      1613      1619      1617      1616      1618
      1617      1616      1619      1617      1616      1620      1618      1616      1619
      1618      1616      1620      1619      1616      1620      1613      1619      1616
      1616      1620      1621      1620      1621      1622      1620      1621      1623
      1620      1621      1624      1622      1621      1623      1622      1621      1624
      1623      1621      1624      1621      1624      1625      1621      1624      1626
      1621      1624      1632      1625      1624      1626      1625      1624      1632
      1626      1624      1632      1624      1626      1627      1626      1627      1628
      1626      1627      1629      1628      1627      1629      1627      1629      1630
      1627      1629      1631      1627      1629      1641      1630      1629      1631
      1630      1629      1641      1631      1629      1641      1624      1632      1633
      1624      1632      1634      1624      1632      1635      1633      1632      1634
      1633      1632      1635      1634      1632      1635      1632      1635      1636
      1635      1636      1637      1635      1636      1638      1637      1636      1638
      1636      1638      1639      1636      1638      1640      1636      1638      1688
      1639      1638      1640      1639      1638      1688      1640      1638      1688
      1629      1641      1642      1629      1641      1643      1629      1641      1644
      1642      1641      1643      1642      1641      1644      1643      1641      1644
      1641      1644      1645      1641      1644      1646      1641      1644      1647
      1645      1644      1646      1645      1644      1647      1646      1644      1647
      1644      1647      1648      1644      1647      1649      1644      1647      1650
      1648      1647      1649      1648      1647      1650      1649      1647      1650
      1647      1650      1651      1647      1650      1652      1647      1650      1653
      1651      1650      1652      1651      1650      1653      1652      1650      1653
      1650      1653      1654      1650      1653      1655      1650      1653      1656
      1654      1653      1655      1654      1653      1656      1655      1653      1656
      1653      1656      1657      1653      1656      1658      1653      1656      1659
      1657      1656      1658      1657      1656      1659      1658      1656      1659
      1656      1659      1660      1656      1659      1661      1660      1659      1661
      1659      1661      1662      1659      1661      1663      1662      1661      1663
      1661      1663      1664      1661      1663      1665      1661      1663      1666
      1664      1663      1665      1664      1663      1666      1665      1663      1666
      1663      1666      1667      1663      1666      1668      1663      1666      1669
      1667      1666      1668      1667      1666      1669      1668      1666      1669
      1666      1669      1670      1666      1669      1671      1666      1669      1672
      1670      1669      1671      1670      1669      1672      1671      1669      1672
      1669      1672      1673      1669      1672      1674      1669      1672      1675
      1673      1672      1674      1673      1672      1675      1674      1672      1675
      1672      1675      1676      1672      1675      1677      1672      1675      1678
      1676      1675      1677      1676      1675      1678      1677      1675      1678
      1675      1678      1679      1675      1678      1680      1675      1678      1681
      1679      1678      1680      1679      1678      1681      1680      1678      1681
      1678      1681      1682      1678      1681      1683      1678      1681      1684
      1682      1681      1683      1682      1681      1684      1683      1681      1684
      1681      1684      1685      1681      1684      1686      1681      1684      1687
      1685      1684      1686      1685      1684      1687      1686      1684      1687
      1638      1688      1689      1638      1688      1690      1638      1688      1691
      1689      1688      1690      1689      1688      1691      1690      1688      1691
      1688      1691      1692      1688      1691      1693      1688      1691      1694
      1692      1691      1693      1692      1691      1694      1693      1691      1694
      1691      1694      1695      1691      1694      1696      1691      1694      1697
      1695      1694      1696      1695      1694      1697      1696      1694      1697
      1694      1697      1698      1694      1697      1699      1694      1697      1700
      1698      1697      1699      1698      1697      1700      1699      1697      1700
      1697      1700      1701      1697      1700      1702      1697      1700      1703
      1701      1700      1702      1701      1700      1703      1702      1700      1703
      1700      1703      1704      1700      1703      1705      1700      1703      1706
      1704      1703      1705      1704      1703      1706      1705      1703      1706
      1703      1706      1707      1703      1706      1708      1703      1706      1709
      1707      1706      1708      1707      1706      1709      1708      1706      1709
      1706      1709      1710      1706      1709      1711      1706      1709      1712
      1710      1709      1711      1710      1709      1712      1711      1709      1712
      1709      1712      1713      1709      1712      1714      1709      1712      1715
      1713      1712      1714      1713      1712      1715      1714      1712      1715
      1712      1715      1716      1712      1715      1717      1712      1715      1718
      1716      1715      1717      1716      1715      1718      1717      1715      1718
      1715      1718      1719      1715      1718      1720      1715      1718      1721
      1719      1718      1720      1719      1718      1721      1720      1718      1721
      1718      1721      1722      1718      1721      1723      1718      1721      1724
      1722      1721      1723      1722      1721      1724      1723      1721      1724
      1721      1724      1725      1721      1724      1726      1721      1724      1727
      1725      1724      1726      1725      1724      1727      1726      1724      1727
      1724      1727      1728      1724      1727      1729      1724      1727      1730
      1728      1727      1729      1728      1727      1730      1729      1727      1730
      1732      1731      1735      1732      1731      1739      1732      1731      1743
      1735      1731      1739      1735      1731      1743      1739      1731      1743
      1731      1732      1733      1731      1732      1734      1731      1732      1747
      1733      1732      1734      1733      1732      1747      1734      1732      1747
      1731      1735      1736      1731      1735      1737      1731      1735      1738
      1736      1735      1737      1736      1735      1738      1737      1735      1738
      1731      1739      1740      1731      1739      1741      1731      1739      1742
      1740      1739      1741      1740      1739      1742      1741      1739      1742
      1731      1743      1744      1731      1743      1745      1731      1743      1746
      1744      1743      1745      1744      1743      1746      1745      1743      1746
      1732      1747      1748      1732      1747      1749      1732      1747      1753
      1748      1747      1749      1748      1747      1753      1749      1747      1753
      1751      1750      1752      1751      1750      1753      1751      1750      1754
      1752      1750      1753      1752      1750      1754      1753      1750      1754
      1747      1753      1750      1750      1754      1755      1754      1755      1756
      1754      1755      1757      1754      1755      1758      1756      1755      1757
      1756      1755      1758      1757      1755      1758      1755      1758      1759
      1755      1758      1760      1755      1758      1766      1759      1758      1760
      1759      1758      1766      1760      1758      1766      1758      1760      1761
      1760      1761      1762      1760      1761      1763      1762      1761      1763
      1761      1763      1764      1761      1763      1765      1761      1763      1775
      1764      1763      1765      1764      1763      1775      1765      1763      1775
      1758      1766      1767      1758      1766      1768      1758      1766      1769
      1767      1766      1768      1767      1766      1769      1768      1766      1769
      1766      1769      1770      1769      1770      1771      1769      1770      1772
      1771      1770      1772      1770      1772      1773      1770      1772      1774
      1770      1772      1822      1773      1772      1774      1773      1772      1822
      1774      1772      1822      1763      1775      1776      1763      1775      1777
      1763      1775      1778      1776      1775      1777      1776      1775      1778
      1777      1775      1778      1775      1778      1779      1775      1778      1780
      1775      1778      1781      1779      1778      1780      1779      1778      1781
      1780      1778      1781      1778      1781      1782      1778      1781      1783
      1778      1781      1784      1782      1781      1783      1782      1781      1784
      1783      1781      1784      1781      1784      1785      1781      1784      1786
      1781      1784      1787      1785      1784      1786      1785      1784      1787
      1786      1784      1787      1784      1787      1788      1784      1787      1789
      1784      1787      1790      1788      1787      1789      1788      1787      1790
      1789      1787      1790      1787      1790      1791      1787      1790      1792
      1787      1790      1793      1791      1790      1792      1791      1790      1793
      1792      1790      1793      1790      1793      1794      1790      1793      1795
      1794      1793      1795      1793      1795      1796      1793      1795      1797
      1796      1795      1797      1795      1797      1798      1795      1797      1799
      1795      1797      1800      1798      1797      1799      1798      1797      1800
      1799      1797      1800      1797      1800      1801      1797      1800      1802
      1797      1800      1803      1801      1800      1802      1801      1800      1803
      1802      1800      1803      1800      1803      1804      1800      1803      1805
      1800      1803      1806      1804      1803      1805      1804      1803      1806
      1805      1803      1806      1803      1806      1807      1803      1806      1808
      1803      1806      1809      1807      1806      1808      1807      1806      1809
      1808      1806      1809      1806      1809      1810      1806      1809      1811
      1806      1809      1812      1810      1809      1811      1810      1809      1812
      1811      1809      1812      1809      1812      1813      1809      1812      1814
      1809      1812      1815      1813      1812      1814      1813      1812      1815
      1814      1812      1815      1812      1815      1816      1812      1815      1817
      1812      1815      1818      1816      1815      1817      1816      1815      1818
      1817      1815      1818      1815      1818      1819      1815      1818      1820
      1815      1818      1821      1819      1818      1820      1819      1818      1821
      1820      1818      1821      1772      1822      1823      1772      1822      1824
      1772      1822      1825      1823      1822      1824      1823      1822      1825
      1824      1822      1825      1822      1825      1826      1822      1825      1827
      1822      1825      1828      1826      1825      1827      1826      1825      1828
      1827      1825      1828      1825      1828      1829      1825      1828      1830
      1825      1828      1831      1829      1828      1830      1829      1828      1831
      1830      1828      1831      1828      1831      1832      1828      1831      1833
      1828      1831      1834      1832      1831      1833      1832      1831      1834
      1833      1831      1834      1831      1834      1835      1831      1834      1836
      1831      1834      1837      1835      1834      1836      1835      1834      1837
      1836      1834      1837      1834      1837      1838      1834      1837      1839
      1834      1837      1840      1838      1837      1839      1838      1837      1840
      1839      1837      1840      1837      1840      1841      1837      1840      1842
      1837      1840      1843      1841      1840      1842      1841      1840      1843
      1842      1840      1843      1840      1843      1844      1840      1843      1845
      1840      1843      1846      1844      1843      1845      1844      1843      1846
      1845      1843      1846      1843      1846      1847      1843      1846      1848
      1843      1846      1849      1847      1846      1848      1847      1846      1849
      1848      1846      1849      1846      1849      1850      1846      1849      1851
      1846      1849      1852      1850      1849      1851      1850      1849      1852
      1851      1849      1852      1849      1852      1853      1849      1852      1854
      1849      1852      1855      1853      1852      1854      1853      1852      1855
      1854      1852      1855      1852      1855      1856      1852      1855      1857
      1852      1855      1858      1856      1855      1857      1856      1855      1858
      1857      1855      1858      1855      1858      1859      1855      1858      1860
      1855      1858      1861      1859      1858      1860      1859      1858      1861
      1860      1858      1861      1858      1861      1862      1858      1861      1863
      1858      1861      1864      1862      1861      1863      1862      1861      1864
      1863      1861      1864      1866      1865      1869      1866      1865      1873
      1866      1865      1877      1869      1865      1873      1869      1865      1877
      1873      1865      1877      1865      1866      1867      1865      1866      1868
      1865      1866      1881      1867      1866      1868      1867      1866      1881
      1868      1866      1881      1865      1869      1870      1865      1869      1871
      1865      1869      1872      1870      1869      1871      1870      1869      1872
      1871      1869      1872      1865      1873      1874      1865      1873      1875
      1865      1873      1876      1874      1873      1875      1874      1873      1876
      1875      1873      1876      1865      1877      1878      1865      1877      1879
      1865      1877      1880      1878      1877      1879      1878      1877      1880
      1879      1877      1880      1866      1881      1882      1866      1881      1883
      1866      1881      1887      1882      1881      1883      1882      1881      1887
      1883      1881      1887      1885      1884      1886      1885      1884      1887
      1885      1884      1888      1886      1884      1887      1886      1884      1888
      1887      1884      1888      1881      1887      1884      1884      1888      1889
      1888      1889      1890      1888      1889      1891      1888      1889      1892
      1890      1889      1891      1890      1889      1892      1891      1889      1892
      1889      1892      1893      1889      1892      1894      1889      1892      1900
      1893      1892      1894      1893      1892      1900      1894      1892      1900
      1892      1894      1895      1894      1895      1896      1894      1895      1897
      1896      1895      1897      1895      1897      1898      1895      1897      1899
      1895      1897      1909      1898      1897      1899      1898      1897      1909
      1899      1897      1909      1892      1900      1901      1892      1900      1902
      1892      1900      1903      1901      1900      1902      1901      1900      1903
      1902      1900      1903      1900      1903      1904      1903      1904      1905
      1903      1904      1906      1905      1904      1906      1904      1906      1907
      1904      1906      1908      1904      1906      1956      1907      1906      1908
      1907      1906      1956      1908      1906      1956      1897      1909      1910
      1897      1909      1911      1897      1909      1912      1910      1909      1911
      1910      1909      1912      1911      1909      1912      1909      1912      1913
      1909      1912      1914      1909      1912      1915      1913      1912      1914
      1913      1912      1915      1914      1912      1915      1912      1915      1916
      1912      1915      1917      1912      1915      1918      1916      1915      1917
      1916      1915      1918      1917      1915      1918      1915      1918      1919
      1915      1918      1920      1915      1918      1921      1919      1918      1920
      1919      1918      1921      1920      1918      1921      1918      1921      1922
      1918      1921      1923      1918      1921      1924      1922      1921      1923
      1922      1921      1924      1923      1921      1924      1921      1924      1925
      1921      1924      1926      1921      1924      1927      1925      1924      1926
      1925      1924      1927      1926      1924      1927      1924      1927      1928
      1924      1927      1929      1928      1927      1929      1927      1929      1930
      1927      1929      1931      1930      1929      1931      1929      1931      1932
      1929      1931      1933      1929      1931      1934      1932      1931      1933
      1932      1931      1934      1933      1931      1934      1931      1934      1935
      1931      1934      1936      1931      1934      1937      1935      1934      1936
      1935      1934      1937      1936      1934      1937      1934      1937      1938
      1934      1937      1939      1934      1937      1940      1938      1937      1939
      1938      1937      1940      1939      1937      1940      1937      1940      1941
      1937      1940      1942      1937      1940      1943      1941      1940      1942
      1941      1940      1943      1942      1940      1943      1940      1943      1944
      1940      1943      1945      1940      1943      1946      1944      1943      1945
      1944      1943      1946      1945      1943      1946      1943      1946      1947
      1943      1946      1948      1943      1946      1949      1947      1946      1948
      1947      1946      1949      1948      1946      1949      1946      1949      1950
      1946      1949      1951      1946      1949      1952      1950      1949      1951
      1950      1949      1952      1951      1949      1952      1949      1952      1953
      1949      1952      1954      1949      1952      1955      1953      1952      1954
      1953      1952      1955      1954      1952      1955      1906      1956      1957
      1906      1956      1958      1906      1956      1959      1957      1956      1958
      1957      1956      1959      1958      1956      1959      1956      1959      1960
      1956      1959      1961      1956      1959      1962      1960      1959      1961
      1960      1959      1962      1961      1959      1962      1959      1962      1963
      1959      1962      1964      1959      1962      1965      1963      1962      1964
      1963      1962      1965      1964      1962      1965      1962      1965      1966
      1962      1965      1967      1962      1965      1968      1966      1965      1967
      1966      1965      1968      1967      1965      1968      1965      1968      1969
      1965      1968      1970      1965      1968      1971      1969      1968      1970
      1969      1968      1971      1970      1968      1971      1968      1971      1972
      1968      1971      1973      1968      1971      1974      1972      1971      1973
      1972      1971      1974      1973      1971      1974      1971      1974      1975
      1971      1974      1976      1971      1974      1977      1975      1974      1976
      1975      1974      1977      1976      1974      1977      1974      1977      1978
      1974      1977      1979      1974      1977      1980      1978      1977      1979
      1978      1977      1980      1979      1977      1980      1977      1980      1981
      1977      1980      1982      1977      1980      1983      1981      1980      1982
      1981      1980      1983      1982      1980      1983      1980      1983      1984
      1980      1983      1985      1980      1983      1986      1984      1983      1985
      1984      1983      1986      1985      1983      1986      1983      1986      1987
      1983      1986      1988      1983      1986      1989      1987      1986      1988
      1987      1986      1989      1988      1986      1989      1986      1989      1990
      1986      1989      1991      1986      1989      1992      1990      1989      1991
      1990      1989      1992      1991      1989      1992      1989      1992      1993
      1989      1992      1994      1989      1992      1995      1993      1992      1994
      1993      1992      1995      1994      1992      1995      1992      1995      1996
      1992      1995      1997      1992      1995      1998      1996      1995      1997
      1996      1995      1998      1997      1995      1998      2000      1999      2003
      2000      1999      2007      2000      1999      2011      2003      1999      2007
      2003      1999      2011      2007      1999      2011      1999      2000      2001
      1999      2000      2002      1999      2000      2015      2001      2000      2002
      2001      2000      2015      2002      2000      2015      1999      2003      2004
      1999      2003      2005      1999      2003      2006      2004      2003      2005
      2004      2003      2006      2005      2003      2006      1999      2007      2008
      1999      2007      2009      1999      2007      2010      2008      2007      2009
      2008      2007      2010      2009      2007      2010      1999      2011      2012
      1999      2011      2013      1999      2011      2014      2012      2011      2013
      2012      2011      2014      2013      2011      2014      2000      2015      2016
      2000      2015      2017      2000      2015      2021      2016      2015      2017
      2016      2015      2021      2017      2015      2021      2019      2018      2020
      2019      2018      2021      2019      2018      2022      2020      2018      2021
      2020      2018      2022      2021      2018      2022      2015      2021      2018
      2018      2022      2023      2022      2023      2024      2022      2023      2025
      2022      2023      2026      2024      2023      2025      2024      2023      2026
      2025      2023      2026      2023      2026      2027      2023      2026      2028
      2023      2026      2034      2027      2026      2028      2027      2026      2034
      2028      2026      2034      2026      2028      2029      2028      2029      2030
      2028      2029      2031      2030      2029      2031      2029      2031      2032
      2029      2031      2033      2029      2031      2043      2032      2031      2033
      2032      2031      2043      2033      2031      2043      2026      2034      2035
      2026      2034      2036      2026      2034      2037      2035      2034      2036
      2035      2034      2037      2036      2034      2037      2034      2037      2038
      2037      2038      2039      2037      2038      2040      2039      2038      2040
      2038      2040      2041      2038      2040      2042      2038      2040      2090
      2041      2040      2042      2041      2040      2090      2042      2040      2090
      2031      2043      2044      2031      2043      2045      2031      2043      2046
      2044      2043      2045      2044      2043      2046      2045      2043      2046
      2043      2046      2047      2043      2046      2048      2043      2046      2049
      2047      2046      2048      2047      2046      2049      2048      2046      2049
      2046      2049      2050      2046      2049      2051      2046      2049      2052
      2050      2049      2051      2050      2049      2052      2051      2049      2052
      2049      2052      2053      2049      2052      2054      2049      2052      2055
      2053      2052      2054      2053      2052      2055      2054      2052      2055
      2052      2055      2056      2052      2055      2057      2052      2055      2058
      2056      2055      2057      2056      2055      2058      2057      2055      2058
      2055      2058      2059      2055      2058      2060      2055      2058      2061
      2059      2058      2060      2059      2058      2061      2060      2058      2061
      2058      2061      2062      2058      2061      2063      2062      2061      2063
      2061      2063      2064      2061      2063      2065      2064      2063      2065
      2063      2065      2066      2063      2065      2067      2063      2065      2068
      2066      2065      2067      2066      2065      2068      2067      2065      2068
      2065      2068      2069      2065      2068      2070      2065      2068      2071
      2069      2068      2070      2069      2068      2071      2070      2068      2071
      2068      2071      2072      2068      2071      2073      2068      2071      2074
      2072      2071      2073      2072      2071      2074      2073      2071      2074
      2071      2074      2075      2071      2074      2076      2071      2074      2077
      2075      2074      2076      2075      2074      2077      2076      2074      2077
      2074      2077      2078      2074      2077      2079      2074      2077      2080
      2078      2077      2079      2078      2077      2080      2079      2077      2080
      2077      2080      2081      2077      2080      2082      2077      2080      2083
      2081      2080      2082      2081      2080      2083      2082      2080      2083
      2080      2083      2084      2080      2083      2085      2080      2083      2086
      2084      2083      2085      2084      2083      2086      2085      2083      2086
      2083      2086      2087      2083      2086      2088      2083      2086      2089
      2087      2086      2088      2087      2086      2089      2088      2086      2089
      2040      2090      2091      2040      2090      2092      2040      2090      2093
      2091      2090      2092      2091      2090      2093      2092      2090      2093
      2090      2093      2094      2090      2093      2095      2090      2093      2096
      2094      2093      2095      2094      2093      2096      2095      2093      2096
      2093      2096      2097      2093      2096      2098      2093      2096      2099
      2097      2096      2098      2097      2096      2099      2098      2096      2099
      2096      2099      2100      2096      2099      2101      2096      2099      2102
      2100      2099      2101      2100      2099      2102      2101      2099      2102
      2099      2102      2103      2099      2102      2104      2099      2102      2105
      2103      2102      2104      2103      2102      2105      2104      2102      2105
      2102      2105      2106      2102      2105      2107      2102      2105      2108
      2106      2105      2107      2106      2105      2108      2107      2105      2108
      2105      2108      2109      2105      2108      2110      2105      2108      2111
      2109      2108      2110      2109      2108      2111      2110      2108      2111
      2108      2111      2112      2108      2111      2113      2108      2111      2114
      2112      2111      2113      2112      2111      2114      2113      2111      2114
      2111      2114      2115      2111      2114      2116      2111      2114      2117
      2115      2114      2116      2115      2114      2117      2116      2114      2117
      2114      2117      2118      2114      2117      2119      2114      2117      2120
      2118      2117      2119      2118      2117      2120      2119      2117      2120
      2117      2120      2121      2117      2120      2122      2117      2120      2123
      2121      2120      2122      2121      2120      2123      2122      2120      2123
      2120      2123      2124      2120      2123      2125      2120      2123      2126
      2124      2123      2125      2124      2123      2126      2125      2123      2126
      2123      2126      2127      2123      2126      2128      2123      2126      2129
      2127      2126      2128      2127      2126      2129      2128      2126      2129
      2126      2129      2130      2126      2129      2131      2126      2129      2132
      2130      2129      2131      2130      2129      2132      2131      2129      2132
      2134      2133      2135      2134      2133      2136      2134      2133      2137
      2135      2133      2136      2135      2133      2137      2136      2133      2137
      2133      2137      2138      2133      2137      2139      2133      2137      2142
      2138      2137      2139      2138      2137      2142      2139      2137      2142
      2137      2139      2140      2137      2139      2141      2140      2139      2141
      2137      2142      2143      2137      2142      2144      2137      2142      2148
      2143      2142      2144      2143      2142      2148      2144      2142      2148
      2146      2145      2147      2146      2145      2148      2146      2145      2149
      2147      2145      2148      2147      2145      2149      2148      2145      2149
      2142      2148      2145      2145      2149      2150      2149      2150      2151
      2149      2150      2152      2149      2150      2153      2151      2150      2152
      2151      2150      2153      2152      2150      2153      2150      2153      2154
      2150      2153      2155      2150      2153      2161      2154      2153      2155
      2154      2153      2161      2155      2153      2161      2153      2155      2156
      2155      2156      2157      2155      2156      2158      2157      2156      2158
      2156      2158      2159      2156      2158      2160      2156      2158      2170
      2159      2158      2160      2159      2158      2170      2160      2158      2170
      2153      2161      2162      2153      2161      2163      2153      2161      2164
      2162      2161      2163      2162      2161      2164      2163      2161      2164
      2161      2164      2165      2164      2165      2166      2164      2165      2167
      2166      2165      2167      2165      2167      2168      2165      2167      2169
      2165      2167      2217      2168      2167      2169      2168      2167      2217
      2169      2167      2217      2158      2170      2171      2158      2170      2172
      2158      2170      2173      2171      2170      2172      2171      2170      2173
      2172      2170      2173      2170      2173      2174      2170      2173      2175
      2170      2173      2176      2174      2173      2175      2174      2173      2176
      2175      2173      2176      2173      2176      2177      2173      2176      2178
      2173      2176      2179      2177      2176      2178      2177      2176      2179
      2178      2176      2179      2176      2179      2180      2176      2179      2181
      2176      2179      2182      2180      2179      2181      2180      2179      2182
      2181      2179      2182      2179      2182      2183      2179      2182      2184
      2179      2182      2185      2183      2182      2184      2183      2182      2185
      2184      2182      2185      2182      2185      2186      2182      2185      2187
      2182      2185      2188      2186      2185      2187      2186      2185      2188
      2187      2185      2188      2185      2188      2189      2185      2188      2190
      2189      2188      2190      2188      2190      2191      2188      2190      2192
      2191      2190      2192      2190      2192      2193      2190      2192      2194
      2190      2192      2195      2193      2192      2194      2193      2192      2195
      2194      2192      2195      2192      2195      2196      2192      2195      2197
      2192      2195      2198      2196      2195      2197      2196      2195      2198
      2197      2195      2198      2195      2198      2199      2195      2198      2200
      2195      2198      2201      2199      2198      2200      2199      2198      2201
      2200      2198      2201      2198      2201      2202      2198      2201      2203
      2198      2201      2204      2202      2201      2203      2202      2201      2204
      2203      2201      2204      2201      2204      2205      2201      2204      2206
      2201      2204      2207      2205      2204      2206      2205      2204      2207
      2206      2204      2207      2204      2207      2208      2204      2207      2209
      2204      2207      2210      2208      2207      2209      2208      2207      2210
      2209      2207      2210      2207      2210      2211      2207      2210      2212
      2207      2210      2213      2211      2210      2212      2211      2210      2213
      2212      2210      2213      2210      2213      2214      2210      2213      2215
      2210      2213      2216      2214      2213      2215      2214      2213      2216
      2215      2213      2216      2167      2217      2218      2167      2217      2219
      2167      2217      2220      2218      2217      2219      2218      2217      2220
      2219      2217      2220      2217      2220      2221      2217      2220      2222
      2217      2220      2223      2221      2220      2222      2221      2220      2223
      2222      2220      2223      2220      2223      2224      2220      2223      2225
      2220      2223      2226      2224      2223      2225      2224      2223      2226
      2225      2223      2226      2223      2226      2227      2223      2226      2228
      2223      2226      2229      2227      2226      2228      2227      2226      2229
      2228      2226      2229      2226      2229      2230      2226      2229      2231
      2226      2229      2232      2230      2229      2231      2230      2229      2232
      2231      2229      2232      2229      2232      2233      2229      2232      2234
      2229      2232      2235      2233      2232      2234      2233      2232      2235
      2234      2232      2235      2232      2235      2236      2232      2235      2237
      2232      2235      2238      2236      2235      2237      2236      2235      2238
      2237      2235      2238      2235      2238      2239      2235      2238      2240
      2235      2238      2241      2239      2238      2240      2239      2238      2241
      2240      2238      2241      2238      2241      2242      2238      2241      2243
      2238      2241      2244      2242      2241      2243      2242      2241      2244
      2243      2241      2244      2241      2244      2245      2241      2244      2246
      2241      2244      2247      2245      2244      2246      2245      2244      2247
      2246      2244      2247      2244      2247      2248      2244      2247      2249
      2244      2247      2250      2248      2247      2249      2248      2247      2250
      2249      2247      2250      2247      2250      2251      2247      2250      2252
      2247      2250      2253      2251      2250      2252      2251      2250      2253
      2252      2250      2253      2250      2253      2254      2250      2253      2255
      2250      2253      2256      2254      2253      2255      2254      2253      2256
      2255      2253      2256      2253      2256      2257      2253      2256      2258
      2253      2256      2259      2257      2256      2258      2257      2256      2259
      2258      2256      2259      2261      2260      2262      2261      2260      2263
      2261      2260      2264      2262      2260      2263      2262      2260      2264
      2263      2260      2264      2260      2264      2265      2260      2264      2266
      2260      2264      2269      2265      2264      2266      2265      2264      2269
      2266      2264      2269      2264      2266      2267      2264      2266      2268
      2267      2266      2268      2264      2269      2270      2264      2269      2271
      2264      2269      2275      2270      2269      2271      2270      2269      2275
      2271      2269      2275      2273      2272      2274      2273      2272      2275
      2273      2272      2276      2274      2272      2275      2274      2272      2276
      2275      2272      2276      2269      2275      2272      2272      2276      2277
      2276      2277      2278      2276      2277      2279      2276      2277      2280
      2278      2277      2279      2278      2277      2280      2279      2277      2280
      2277      2280      2281      2277      2280      2282      2277      2280      2288
      2281      2280      2282      2281      2280      2288      2282      2280      2288
      2280      2282      2283      2282      2283      2284      2282      2283      2285
      2284      2283      2285      2283      2285      2286      2283      2285      2287
      2283      2285      2297      2286      2285      2287      2286      2285      2297
      2287      2285      2297      2280      2288      2289      2280      2288      2290
      2280      2288      2291      2289      2288      2290      2289      2288      2291
      2290      2288      2291      2288      2291      2292      2291      2292      2293
      2291      2292      2294      2293      2292      2294      2292      2294      2295
      2292      2294      2296      2292      2294      2344      2295      2294      2296
      2295      2294      2344      2296      2294      2344      2285      2297      2298
      2285      2297      2299      2285      2297      2300      2298      2297      2299
      2298      2297      2300      2299      2297      2300      2297      2300      2301
      2297      2300      2302      2297      2300      2303      2301      2300      2302
      2301      2300      2303      2302      2300      2303      2300      2303      2304
      2300      2303      2305      2300      2303      2306      2304      2303      2305
      2304      2303      2306      2305      2303      2306      2303      2306      2307
      2303      2306      2308      2303      2306      2309      2307      2306      2308
      2307      2306      2309      2308      2306      2309      2306      2309      2310
      2306      2309      2311      2306      2309      2312      2310      2309      2311
      2310      2309      2312      2311      2309      2312      2309      2312      2313
      2309      2312      2314      2309      2312      2315      2313      2312      2314
      2313      2312      2315      2314      2312      2315      2312      2315      2316
      2312      2315      2317      2316      2315      2317      2315      2317      2318
      2315      2317      2319      2318      2317      2319      2317      2319      2320
      2317      2319      2321      2317      2319      2322      2320      2319      2321
      2320      2319      2322      2321      2319      2322      2319      2322      2323
      2319      2322      2324      2319      2322      2325      2323      2322      2324
      2323      2322      2325      2324      2322      2325      2322      2325      2326
      2322      2325      2327      2322      2325      2328      2326      2325      2327
      2326      2325      2328      2327      2325      2328      2325      2328      2329
      2325      2328      2330      2325      2328      2331      2329      2328      2330
      2329      2328      2331      2330      2328      2331      2328      2331      2332
      2328      2331      2333      2328      2331      2334      2332      2331      2333
      2332      2331      2334      2333      2331      2334      2331      2334      2335
      2331      2334      2336      2331      2334      2337      2335      2334      2336
      2335      2334      2337      2336      2334      2337      2334      2337      2338
      2334      2337      2339      2334      2337      2340      2338      2337      2339
      2338      2337      2340      2339      2337      2340      2337      2340      2341
      2337      2340      2342      2337      2340      2343      2341      2340      2342
      2341      2340      2343      2342      2340      2343      2294      2344      2345
      2294      2344      2346      2294      2344      2347      2345      2344      2346
      2345      2344      2347      2346      2344      2347      2344      2347      2348
      2344      2347      2349      2344      2347      2350      2348      2347      2349
      2348      2347      2350      2349      2347      2350      2347      2350      2351
      2347      2350      2352      2347      2350      2353      2351      2350      2352
      2351      2350      2353      2352      2350      2353      2350      2353      2354
      2350      2353      2355      2350      2353      2356      2354      2353      2355
      2354      2353      2356      2355      2353      2356      2353      2356      2357
      2353      2356      2358      2353      2356      2359      2357      2356      2358
      2357      2356      2359      2358      2356      2359      2356      2359      2360
      2356      2359      2361      2356      2359      2362      2360      2359      2361
      2360      2359      2362      2361      2359      2362      2359      2362      2363
      2359      2362      2364      2359      2362      2365      2363      2362      2364
      2363      2362      2365      2364      2362      2365      2362      2365      2366
      2362      2365      2367      2362      2365      2368      2366      2365      2367
      2366      2365      2368      2367      2365      2368      2365      2368      2369
      2365      2368      2370      2365      2368      2371      2369      2368      2370
      2369      2368      2371      2370      2368      2371      2368      2371      2372
      2368      2371      2373      2368      2371      2374      2372      2371      2373
      2372      2371      2374      2373      2371      2374      2371      2374      2375
      2371      2374      2376      2371      2374      2377      2375      2374      2376
      2375      2374      2377      2376      2374      2377      2374      2377      2378
      2374      2377      2379      2374      2377      2380      2378      2377      2379
      2378      2377      2380      2379      2377      2380      2377      2380      2381
      2377      2380      2382      2377      2380      2383      2381      2380      2382
      2381      2380      2383      2382      2380      2383      2380      2383      2384
      2380      2383      2385      2380      2383      2386      2384      2383      2385
      2384      2383      2386      2385      2383      2386      2388      2387      2391
      2388      2387      2395      2388      2387      2399      2391      2387      2395
      2391      2387      2399      2395      2387      2399      2387      2388      2389
      2387      2388      2390      2387      2388      2403      2389      2388      2390
      2389      2388      2403      2390      2388      2403      2387      2391      2392
      2387      2391      2393      2387      2391      2394      2392      2391      2393
      2392      2391      2394      2393      2391      2394      2387      2395      2396
      2387      2395      2397      2387      2395      2398      2396      2395      2397
      2396      2395      2398      2397      2395      2398      2387      2399      2400
      2387      2399      2401      2387      2399      2402      2400      2399      2401
      2400      2399      2402      2401      2399      2402      2388      2403      2404
      2388      2403      2405      2388      2403      2409      2404      2403      2405
      2404      2403      2409      2405      2403      2409      2407      2406      2408
      2407      2406      2409      2407      2406      2410      2408      2406      2409
      2408      2406      2410      2409      2406      2410      2403      2409      2406
      2406      2410      2411      2410      2411      2412      2410      2411      2413
      2410      2411      2414      2412      2411      2413      2412      2411      2414
      2413      2411      2414      2411      2414      2415      2411      2414      2416
      2411      2414      2422      2415      2414      2416      2415      2414      2422
      2416      2414      2422      2414      2416      2417      2416      2417      2418
      2416      2417      2419      2418      2417      2419      2417      2419      2420
      2417      2419      2421      2417      2419      2431      2420      2419      2421
      2420      2419      2431      2421      2419      2431      2414      2422      2423
      2414      2422      2424      2414      2422      2425      2423      2422      2424
      2423      2422      2425      2424      2422      2425      2422      2425      2426
      2425      2426      2427      2425      2426      2428      2427      2426      2428
      2426      2428      2429      2426      2428      2430      2426      2428      2478
      2429      2428      2430      2429      2428      2478      2430      2428      2478
      2419      2431      2432      2419      2431      2433      2419      2431      2434
      2432      2431      2433      2432      2431      2434      2433      2431      2434
      2431      2434      2435      2431      2434      2436      2431      2434      2437
      2435      2434      2436      2435      2434      2437      2436      2434      2437
      2434      2437      2438      2434      2437      2439      2434      2437      2440
      2438      2437      2439      2438      2437      2440      2439      2437      2440
      2437      2440      2441      2437      2440      2442      2437      2440      2443
      2441      2440      2442      2441      2440      2443      2442      2440      2443
      2440      2443      2444      2440      2443      2445      2440      2443      2446
      2444      2443      2445      2444      2443      2446      2445      2443      2446
      2443      2446      2447      2443      2446      2448      2443      2446      2449
      2447      2446      2448      2447      2446      2449      2448      2446      2449
      2446      2449      2450      2446      2449      2451      2450      2449      2451
      2449      2451      2452      2449      2451      2453      2452      2451      2453
      2451      2453      2454      2451      2453      2455      2451      2453      2456
      2454      2453      2455      2454      2453      2456      2455      2453      2456
      2453      2456      2457      2453      2456      2458      2453      2456      2459
      2457      2456      2458      2457      2456      2459      2458      2456      2459
      2456      2459      2460      2456      2459      2461      2456      2459      2462
      2460      2459      2461      2460      2459      2462      2461      2459      2462
      2459      2462      2463      2459      2462      2464      2459      2462      2465
      2463      2462      2464      2463      2462      2465      2464      2462      2465
      2462      2465      2466      2462      2465      2467      2462      2465      2468
      2466      2465      2467      2466      2465      2468      2467      2465      2468
      2465      2468      2469      2465      2468      2470      2465      2468      2471
      2469      2468      2470      2469      2468      2471      2470      2468      2471
      2468      2471      2472      2468      2471      2473      2468      2471      2474
      2472      2471      2473      2472      2471      2474      2473      2471      2474
      2471      2474      2475      2471      2474      2476      2471      2474      2477
      2475      2474      2476      2475      2474      2477      2476      2474      2477
      2428      2478      2479      2428      2478      2480      2428      2478      2481
      2479      2478      2480      2479      2478      2481      2480      2478      2481
      2478      2481      2482      2478      2481      2483      2478      2481      2484
      2482      2481      2483      2482      2481      2484      2483      2481      2484
      2481      2484      2485      2481      2484      2486      2481      2484      2487
      2485      2484      2486      2485      2484      2487      2486      2484      2487
      2484      2487      2488      2484      2487      2489      2484      2487      2490
      2488      2487      2489      2488      2487      2490      2489      2487      2490
      2487      2490      2491      2487      2490      2492      2487      2490      2493
      2491      2490      2492      2491      2490      2493      2492      2490      2493
      2490      2493      2494      2490      2493      2495      2490      2493      2496
      2494      2493      2495      2494      2493      2496      2495      2493      2496
      2493      2496      2497      2493      2496      2498      2493      2496      2499
      2497      2496      2498      2497      2496      2499      2498      2496      2499
      2496      2499      2500      2496      2499      2501      2496      2499      2502
      2500      2499      2501      2500      2499      2502      2501      2499      2502
      2499      2502      2503      2499      2502      2504      2499      2502      2505
      2503      2502      2504      2503      2502      2505      2504      2502      2505
      2502      2505      2506      2502      2505      2507      2502      2505      2508
      2506      2505      2507      2506      2505      2508      2507      2505      2508
      2505      2508      2509      2505      2508      2510      2505      2508      2511
      2509      2508      2510      2509      2508      2511      2510      2508      2511
      2508      2511      2512      2508      2511      2513      2508      2511      2514
      2512      2511      2513      2512      2511      2514      2513      2511      2514
      2511      2514      2515      2511      2514      2516      2511      2514      2517
      2515      2514      2516      2515      2514      2517      2516      2514      2517
      2514      2517      2518      2514      2517      2519      2514      2517      2520
      2518      2517      2519      2518      2517      2520      2519      2517      2520
      2522      2521      2525      2522      2521      2529      2522      2521      2533
      2525      2521      2529      2525      2521      2533      2529      2521      2533
      2521      2522      2523      2521      2522      2524      2521      2522      2537
      2523      2522      2524      2523      2522      2537      2524      2522      2537
      2521      2525      2526      2521      2525      2527      2521      2525      2528
      2526      2525      2527      2526      2525      2528      2527      2525      2528
      2521      2529      2530      2521      2529      2531      2521      2529      2532
      2530      2529      2531      2530      2529      2532      2531      2529      2532
      2521      2533      2534      2521      2533      2535      2521      2533      2536
      2534      2533      2535      2534      2533      2536      2535      2533      2536
      2522      2537      2538      2522      2537      2539      2522      2537      2543
      2538      2537      2539      2538      2537      2543      2539      2537      2543
      2541      2540      2542      2541      2540      2543      2541      2540      2544
      2542      2540      2543      2542      2540      2544      2543      2540      2544
      2537      2543      2540      2540      2544      2545      2544      2545      2546
      2544      2545      2547      2544      2545      2548      2546      2545      2547
      2546      2545      2548      2547      2545      2548      2545      2548      2549
      2545      2548      2550      2545      2548      2556      2549      2548      2550
      2549      2548      2556      2550      2548      2556      2548      2550      2551
      2550      2551      2552      2550      2551      2553      2552      2551      2553
      2551      2553      2554      2551      2553      2555      2551      2553      2565
      2554      2553      2555      2554      2553      2565      2555      2553      2565
      2548      2556      2557      2548      2556      2558      2548      2556      2559
      2557      2556      2558      2557      2556      2559      2558      2556      2559
      2556      2559      2560      2559      2560      2561      2559      2560      2562
      2561      2560      2562      2560      2562      2563      2560      2562      2564
      2560      2562      2612      2563      2562      2564      2563      2562      2612
      2564      2562      2612      2553      2565      2566      2553      2565      2567
      2553      2565      2568      2566      2565      2567      2566      2565      2568
      2567      2565      2568      2565      2568      2569      2565      2568      2570
      2565      2568      2571      2569      2568      2570      2569      2568      2571
      2570      2568      2571      2568      2571      2572      2568      2571      2573
      2568      2571      2574      2572      2571      2573      2572      2571      2574
      2573      2571      2574      2571      2574      2575      2571      2574      2576
      2571      2574      2577      2575      2574      2576      2575      2574      2577
      2576      2574      2577      2574      2577      2578      2574      2577      2579
      2574      2577      2580      2578      2577      2579      2578      2577      2580
      2579      2577      2580      2577      2580      2581      2577      2580      2582
      2577      2580      2583      2581      2580      2582      2581      2580      2583
      2582      2580      2583      2580      2583      2584      2580      2583      2585
      2584      2583      2585      2583      2585      2586      2583      2585      2587
      2586      2585      2587      2585      2587      2588      2585      2587      2589
      2585      2587      2590      2588      2587      2589      2588      2587      2590
      2589      2587      2590      2587      2590      2591      2587      2590      2592
      2587      2590      2593      2591      2590      2592      2591      2590      2593
      2592      2590      2593      2590      2593      2594      2590      2593      2595
      2590      2593      2596      2594      2593      2595      2594      2593      2596
      2595      2593      2596      2593      2596      2597      2593      2596      2598
      2593      2596      2599      2597      2596      2598      2597      2596      2599
      2598      2596      2599      2596      2599      2600      2596      2599      2601
      2596      2599      2602      2600      2599      2601      2600      2599      2602
      2601      2599      2602      2599      2602      2603      2599      2602      2604
      2599      2602      2605      2603      2602      2604      2603      2602      2605
      2604      2602      2605      2602      2605      2606      2602      2605      2607
      2602      2605      2608      2606      2605      2607      2606      2605      2608
      2607      2605      2608      2605      2608      2609      2605      2608      2610
      2605      2608      2611      2609      2608      2610      2609      2608      2611
      2610      2608      2611      2562      2612      2613      2562      2612      2614
      2562      2612      2615      2613      2612      2614      2613      2612      2615
      2614      2612      2615      2612      2615      2616      2612      2615      2617
      2612      2615      2618      2616      2615      2617      2616      2615      2618
      2617      2615      2618      2615      2618      2619      2615      2618      2620
      2615      2618      2621      2619      2618      2620      2619      2618      2621
      2620      2618      2621      2618      2621      2622      2618      2621      2623
      2618      2621      2624      2622      2621      2623      2622      2621      2624
      2623      2621      2624      2621      2624      2625      2621      2624      2626
      2621      2624      2627      2625      2624      2626      2625      2624      2627
      2626      2624      2627      2624      2627      2628      2624      2627      2629
      2624      2627      2630      2628      2627      2629      2628      2627      2630
      2629      2627      2630      2627      2630      2631      2627      2630      2632
      2627      2630      2633      2631      2630      2632      2631      2630      2633
      2632      2630      2633      2630      2633      2634      2630      2633      2635
      2630      2633      2636      2634      2633      2635      2634      2633      2636
      2635      2633      2636      2633      2636      2637      2633      2636      2638
      2633      2636      2639      2637      2636      2638      2637      2636      2639
      2638      2636      2639      2636      2639      2640      2636      2639      2641
      2636      2639      2642      2640      2639      2641      2640      2639      2642
      2641      2639      2642      2639      2642      2643      2639      2642      2644
      2639      2642      2645      2643      2642      2644      2643      2642      2645
      2644      2642      2645      2642      2645      2646      2642      2645      2647
      2642      2645      2648      2646      2645      2647      2646      2645      2648
      2647      2645      2648      2645      2648      2649      2645      2648      2650
      2645      2648      2651      2649      2648      2650      2649      2648      2651
      2650      2648      2651      2648      2651      2652      2648      2651      2653
      2648      2651      2654      2652      2651      2653      2652      2651      2654
      2653      2651      2654      2656      2655      2657      2656      2655      2658
      2656      2655      2659      2657      2655      2658      2657      2655      2659
      2658      2655      2659      2655      2659      2660      2655      2659      2661
      2655      2659      2664      2660      2659      2661      2660      2659      2664
      2661      2659      2664      2659      2661      2662      2659      2661      2663
      2662      2661      2663      2659      2664      2665      2659      2664      2666
      2659      2664      2670      2665      2664      2666      2665      2664      2670
      2666      2664      2670      2668      2667      2669      2668      2667      2670
      2668      2667      2671      2669      2667      2670      2669      2667      2671
      2670      2667      2671      2664      2670      2667      2667      2671      2672
      2671      2672      2673      2671      2672      2674      2671      2672      2675
      2673      2672      2674      2673      2672      2675      2674      2672      2675
      2672      2675      2676      2672      2675      2677      2672      2675      2683
      2676      2675      2677      2676      2675      2683      2677      2675      2683
      2675      2677      2678      2677      2678      2679      2677      2678      2680
      2679      2678      2680      2678      2680      2681      2678      2680      2682
      2678      2680      2692      2681      2680      2682      2681      2680      2692
      2682      2680      2692      2675      2683      2684      2675      2683      2685
      2675      2683      2686      2684      2683      2685      2684      2683      2686
      2685      2683      2686      2683      2686      2687      2686      2687      2688
      2686      2687      2689      2688      2687      2689      2687      2689      2690
      2687      2689      2691      2687      2689      2739      2690      2689      2691
      2690      2689      2739      2691      2689      2739      2680      2692      2693
      2680      2692      2694      2680      2692      2695      2693      2692      2694
      2693      2692      2695      2694      2692      2695      2692      2695      2696
      2692      2695      2697      2692      2695      2698      2696      2695      2697
      2696      2695      2698      2697      2695      2698      2695      2698      2699
      2695      2698      2700      2695      2698      2701      2699      2698      2700
      2699      2698      2701      2700      2698      2701      2698      2701      2702
      2698      2701      2703      2698      2701      2704      2702      2701      2703
      2702      2701      2704      2703      2701      2704      2701      2704      2705
      2701      2704      2706      2701      2704      2707      2705      2704      2706
      2705      2704      2707      2706      2704      2707      2704      2707      2708
      2704      2707      2709      2704      2707      2710      2708      2707      2709
      2708      2707      2710      2709      2707      2710      2707      2710      2711
      2707      2710      2712      2711      2710      2712      2710      2712      2713
      2710      2712      2714      2713      2712      2714      2712      2714      2715
      2712      2714      2716      2712      2714      2717      2715      2714      2716
      2715      2714      2717      2716      2714      2717      2714      2717      2718
      2714      2717      2719      2714      2717      2720      2718      2717      2719
      2718      2717      2720      2719      2717      2720      2717      2720      2721
      2717      2720      2722      2717      2720      2723      2721      2720      2722
      2721      2720      2723      2722      2720      2723      2720      2723      2724
      2720      2723      2725      2720      2723      2726      2724      2723      2725
      2724      2723      2726      2725      2723      2726      2723      2726      2727
      2723      2726      2728      2723      2726      2729      2727      2726      2728
      2727      2726      2729      2728      2726      2729      2726      2729      2730
      2726      2729      2731      2726      2729      2732      2730      2729      2731
      2730      2729      2732      2731      2729      2732      2729      2732      2733
      2729      2732      2734      2729      2732      2735      2733      2732      2734
      2733      2732      2735      2734      2732      2735      2732      2735      2736
      2732      2735      2737      2732      2735      2738      2736      2735      2737
      2736      2735      2738      2737      2735      2738      2689      2739      2740
      2689      2739      2741      2689      2739      2742      2740      2739      2741
      2740      2739      2742      2741      2739      2742      2739      2742      2743
      2739      2742      2744      2739      2742      2745      2743      2742      2744
      2743      2742      2745      2744      2742      2745      2742      2745      2746
      2742      2745      2747      2742      2745      2748      2746      2745      2747
      2746      2745      2748      2747      2745      2748      2745      2748      2749
      2745      2748      2750      2745      2748      2751      2749      2748      2750
      2749      2748      2751      2750      2748      2751      2748      2751      2752
      2748      2751      2753      2748      2751      2754      2752      2751      2753
      2752      2751      2754      2753      2751      2754      2751      2754      2755
      2751      2754      2756      2751      2754      2757      2755      2754      2756
      2755      2754      2757      2756      2754      2757      2754      2757      2758
      2754      2757      2759      2754      2757      2760      2758      2757      2759
      2758      2757      2760      2759      2757      2760      2757      2760      2761
      2757      2760      2762      2757      2760      2763      2761      2760      2762
      2761      2760      2763      2762      2760      2763      2760      2763      2764
      2760      2763      2765      2760      2763      2766      2764      2763      2765
      2764      2763      2766      2765      2763      2766      2763      2766      2767
      2763      2766      2768      2763      2766      2769      2767      2766      2768
      2767      2766      2769      2768      2766      2769      2766      2769      2770
      2766      2769      2771      2766      2769      2772      2770      2769      2771
      2770      2769      2772      2771      2769      2772      2769      2772      2773
      2769      2772      2774      2769      2772      2775      2773      2772      2774
      2773      2772      2775      2774      2772      2775      2772      2775      2776
      2772      2775      2777      2772      2775      2778      2776      2775      2777
      2776      2775      2778      2777      2775      2778      2775      2778      2779
      2775      2778      2780      2775      2778      2781      2779      2778      2780
      2779      2778      2781      2780      2778      2781      2783      2782      2786
      2783      2782      2790      2783      2782      2794      2786      2782      2790
      2786      2782      2794      2790      2782      2794      2782      2783      2784
      2782      2783      2785      2782      2783      2798      2784      2783      2785
      2784      2783      2798      2785      2783      2798      2782      2786      2787
      2782      2786      2788      2782      2786      2789      2787      2786      2788
      2787      2786      2789      2788      2786      2789      2782      2790      2791
      2782      2790      2792      2782      2790      2793      2791      2790      2792
      2791      2790      2793      2792      2790      2793      2782      2794      2795
      2782      2794      2796      2782      2794      2797      2795      2794      2796
      2795      2794      2797      2796      2794      2797      2783      2798      2799
      2783      2798      2800      2783      2798      2804      2799      2798      2800
      2799      2798      2804      2800      2798      2804      2802      2801      2803
      2802      2801      2804      2802      2801      2805      2803      2801      2804
      2803      2801      2805      2804      2801      2805      2798      2804      2801
      2801      2805      2806      2805      2806      2807      2805      2806      2808
      2805      2806      2809      2807      2806      2808      2807      2806      2809
      2808      2806      2809      2806      2809      2810      2806      2809      2811
      2806      2809      2817      2810      2809      2811      2810      2809      2817
      2811      2809      2817      2809      2811      2812      2811      2812      2813
      2811      2812      2814      2813      2812      2814      2812      2814      2815
      2812      2814      2816      2812      2814      2826      2815      2814      2816
      2815      2814      2826      2816      2814      2826      2809      2817      2818
      2809      2817      2819      2809      2817      2820      2818      2817      2819
      2818      2817      2820      2819      2817      2820      2817      2820      2821
      2820      2821      2822      2820      2821      2823      2822      2821      2823
      2821      2823      2824      2821      2823      2825      2821      2823      2873
      2824      2823      2825      2824      2823      2873      2825      2823      2873
      2814      2826      2827      2814      2826      2828      2814      2826      2829
      2827      2826      2828      2827      2826      2829      2828      2826      2829
      2826      2829      2830      2826      2829      2831      2826      2829      2832
      2830      2829      2831      2830      2829      2832      2831      2829      2832
      2829      2832      2833      2829      2832      2834      2829      2832      2835
      2833      2832      2834      2833      2832      2835      2834      2832      2835
      2832      2835      2836      2832      2835      2837      2832      2835      2838
      2836      2835      2837      2836      2835      2838      2837      2835      2838
      2835      2838      2839      2835      2838      2840      2835      2838      2841
      2839      2838      2840      2839      2838      2841      2840      2838      2841
      2838      2841      2842      2838      2841      2843      2838      2841      2844
      2842      2841      2843      2842      2841      2844      2843      2841      2844
      2841      2844      2845      2841      2844      2846      2845      2844      2846
      2844      2846      2847      2844      2846      2848      2847      2846      2848
      2846      2848      2849      2846      2848      2850      2846      2848      2851
      2849      2848      2850      2849      2848      2851      2850      2848      2851
      2848      2851      2852      2848      2851      2853      2848      2851      2854
      2852      2851      2853      2852      2851      2854      2853      2851      2854
      2851      2854      2855      2851      2854      2856      2851      2854      2857
      2855      2854      2856      2855      2854      2857      2856      2854      2857
      2854      2857      2858      2854      2857      2859      2854      2857      2860
      2858      2857      2859      2858      2857      2860      2859      2857      2860
      2857      2860      2861      2857      2860      2862      2857      2860      2863
      2861      2860      2862      2861      2860      2863      2862      2860      2863
      2860      2863      2864      2860      2863      2865      2860      2863      2866
      2864      2863      2865      2864      2863      2866      2865      2863      2866
      2863      2866      2867      2863      2866      2868      2863      2866      2869
      2867      2866      2868      2867      2866      2869      2868      2866      2869
      2866      2869      2870      2866      2869      2871      2866      2869      2872
      2870      2869      2871      2870      2869      2872      2871      2869      2872
      2823      2873      2874      2823      2873      2875      2823      2873      2876
      2874      2873      2875      2874      2873      2876      2875      2873      2876
      2873      2876      2877      2873      2876      2878      2873      2876      2879
      2877      2876      2878      2877      2876      2879      2878      2876      2879
      2876      2879      2880      2876      2879      2881      2876      2879      2882
      2880      2879      2881      2880      2879      2882      2881      2879      2882
      2879      2882      2883      2879      2882      2884      2879      2882      2885
      2883      2882      2884      2883      2882      2885      2884      2882      2885
      2882      2885      2886      2882      2885      2887      2882      2885      2888
      2886      2885      2887      2886      2885      2888      2887      2885      2888
      2885      2888      2889      2885      2888      2890      2885      2888      2891
      2889      2888      2890      2889      2888      2891      2890      2888      2891
      2888      2891      2892      2888      2891      2893      2888      2891      2894
      2892      2891      2893      2892      2891      2894      2893      2891      2894
      2891      2894      2895      2891      2894      2896      2891      2894      2897
      2895      2894      2896      2895      2894      2897      2896      2894      2897
      2894      2897      2898      2894      2897      2899      2894      2897      2900
      2898      2897      2899      2898      2897      2900      2899      2897      2900
      2897      2900      2901      2897      2900      2902      2897      2900      2903
      2901      2900      2902      2901      2900      2903      2902      2900      2903
      2900      2903      2904      2900      2903      2905      2900      2903      2906
      2904      2903      2905      2904      2903      2906      2905      2903      2906
      2903      2906      2907      2903      2906      2908      2903      2906      2909
      2907      2906      2908      2907      2906      2909      2908      2906      2909
      2906      2909      2910      2906      2909      2911      2906      2909      2912
      2910      2909      2911      2910      2909      2912      2911      2909      2912
      2909      2912      2913      2909      2912      2914      2909      2912      2915
      2913      2912      2914      2913      2912      2915      2914      2912      2915
      2917      2916      2920      2917      2916      2924      2917      2916      2928
      2920      2916      2924      2920      2916      2928      2924      2916      2928
      2916      2917      2918      2916      2917      2919      2916      2917      2932
      2918      2917      2919      2918      2917      2932      2919      2917      2932
      2916      2920      2921      2916      2920      2922      2916      2920      2923
      2921      2920      2922      2921      2920      2923      2922      2920      2923
      2916      2924      2925      2916      2924      2926      2916      2924      2927
      2925      2924      2926      2925      2924      2927      2926      2924      2927
      2916      2928      2929      2916      2928      2930      2916      2928      2931
      2929      2928      2930      2929      2928      2931      2930      2928      2931
      2917      2932      2933      2917      2932      2934      2917      2932      2938
      2933      2932      2934      2933      2932      2938      2934      2932      2938
      2936      2935      2937      2936      2935      2938      2936      2935      2939
      2937      2935      2938      2937      2935      2939      2938      2935      2939
      2932      2938      2935      2935      2939      2940      2939      2940      2941
      2939      2940      2942      2939      2940      2943      2941      2940      2942
      2941      2940      2943      2942      2940      2943      2940      2943      2944
      2940      2943      2945      2940      2943      2951      2944      2943      2945
      2944      2943      2951      2945      2943      2951      2943      2945      2946
      2945      2946      2947      2945      2946      2948      2947      2946      2948
      2946      2948      2949      2946      2948      2950      2946      2948      2960
      2949      2948      2950      2949      2948      2960      2950      2948      2960
      2943      2951      2952      2943      2951      2953      2943      2951      2954
      2952      2951      2953      2952      2951      2954      2953      2951      2954
      2951      2954      2955      2954      2955      2956      2954      2955      2957
      2956      2955      2957      2955      2957      2958      2955      2957      2959
      2955      2957      3007      2958      2957      2959      2958      2957      3007
      2959      2957      3007      2948      2960      2961      2948      2960      2962
      2948      2960      2963      2961      2960      2962      2961      2960      2963
      2962      2960      2963      2960      2963      2964      2960      2963      2965
      2960      2963      2966      2964      2963      2965      2964      2963      2966
      2965      2963      2966      2963      2966      2967      2963      2966      2968
      2963      2966      2969      2967      2966      2968      2967      2966      2969
      2968      2966      2969      2966      2969      2970      2966      2969      2971
      2966      2969      2972      2970      2969      2971      2970      2969      2972
      2971      2969      2972      2969      2972      2973      2969      2972      2974
      2969      2972      2975      2973      2972      2974      2973      2972      2975
      2974      2972      2975      2972      2975      2976      2972      2975      2977
      2972      2975      2978      2976      2975      2977      2976      2975      2978
      2977      2975      2978      2975      2978      2979      2975      2978      2980
      2979      2978      2980      2978      2980      2981      2978      2980      2982
      2981      2980      2982      2980      2982      2983      2980      2982      2984
      2980      2982      2985      2983      2982      2984      2983      2982      2985
      2984      2982      2985      2982      2985      2986      2982      2985      2987
      2982      2985      2988      2986      2985      2987      2986      2985      2988
      2987      2985      2988      2985      2988      2989      2985      2988      2990
      2985      2988      2991      2989      2988      2990      2989      2988      2991
      2990      2988      2991      2988      2991      2992      2988      2991      2993
      2988      2991      2994      2992      2991      2993      2992      2991      2994
      2993      2991      2994      2991      2994      2995      2991      2994      2996
      2991      2994      2997      2995      2994      2996      2995      2994      2997
      2996      2994      2997      2994      2997      2998      2994      2997      2999
      2994      2997      3000      2998      2997      2999      2998      2997      3000
      2999      2997      3000      2997      3000      3001      2997      3000      3002
      2997      3000      3003      3001      3000      3002      3001      3000      3003
      3002      3000      3003      3000      3003      3004      3000      3003      3005
      3000      3003      3006      3004      3003      3005      3004      3003      3006
      3005      3003      3006      2957      3007      3008      2957      3007      3009
      2957      3007      3010      3008      3007      3009      3008      3007      3010
      3009      3007      3010      3007      3010      3011      3007      3010      3012
      3007      3010      3013      3011      3010      3012      3011      3010      3013
      3012      3010      3013      3010      3013      3014      3010      3013      3015
      3010      3013      3016      3014      3013      3015      3014      3013      3016
      3015      3013      3016      3013      3016      3017      3013      3016      3018
      3013      3016      3019      3017      3016      3018      3017      3016      3019
      3018      3016      3019      3016      3019      3020      3016      3019      3021
      3016      3019      3022      3020      3019      3021      3020      3019      3022
      3021      3019      3022      3019      3022      3023      3019      3022      3024
      3019      3022      3025      3023      3022      3024      3023      3022      3025
      3024      3022      3025      3022      3025      3026      3022      3025      3027
      3022      3025      3028      3026      3025      3027      3026      3025      3028
      3027      3025      3028      3025      3028      3029      3025      3028      3030
      3025      3028      3031      3029      3028      3030      3029      3028      3031
      3030      3028      3031      3028      3031      3032      3028      3031      3033
      3028      3031      3034      3032      3031      3033      3032      3031      3034
      3033      3031      3034      3031      3034      3035      3031      3034      3036
      3031      3034      3037      3035      3034      3036      3035      3034      3037
      3036      3034      3037      3034      3037      3038      3034      3037      3039
      3034      3037      3040      3038      3037      3039      3038      3037      3040
      3039      3037      3040      3037      3040      3041      3037      3040      3042
      3037      3040      3043      3041      3040      3042      3041      3040      3043
      3042      3040      3043      3040      3043      3044      3040      3043      3045
      3040      3043      3046      3044      3043      3045      3044      3043      3046
      3045      3043      3046      3043      3046      3047      3043      3046      3048
      3043      3046      3049      3047      3046      3048      3047      3046      3049
      3048      3046      3049      3051      3050      3054      3051      3050      3058
      3051      3050      3062      3054      3050      3058      3054      3050      3062
      3058      3050      3062      3050      3051      3052      3050      3051      3053
      3050      3051      3066      3052      3051      3053      3052      3051      3066
      3053      3051      3066      3050      3054      3055      3050      3054      3056
      3050      3054      3057      3055      3054      3056      3055      3054      3057
      3056      3054      3057      3050      3058      3059      3050      3058      3060
      3050      3058      3061      3059      3058      3060      3059      3058      3061
      3060      3058      3061      3050      3062      3063      3050      3062      3064
      3050      3062      3065      3063      3062      3064      3063      3062      3065
      3064      3062      3065      3051      3066      3067      3051      3066      3068
      3051      3066      3072      3067      3066      3068      3067      3066      3072
      3068      3066      3072      3070      3069      3071      3070      3069      3072
      3070      3069      3073      3071      3069      3072      3071      3069      3073
      3072      3069      3073      3066      3072      3069      3069      3073      3074
      3073      3074      3075      3073      3074      3076      3073      3074      3077
      3075      3074      3076      3075      3074      3077      3076      3074      3077
      3074      3077      3078      3074      3077      3079      3074      3077      3085
      3078      3077      3079      3078      3077      3085      3079      3077      3085
      3077      3079      3080      3079      3080      3081      3079      3080      3082
      3081      3080      3082      3080      3082      3083      3080      3082      3084
      3080      3082      3094      3083      3082      3084      3083      3082      3094
      3084      3082      3094      3077      3085      3086      3077      3085      3087
      3077      3085      3088      3086      3085      3087      3086      3085      3088
      3087      3085      3088      3085      3088      3089      3088      3089      3090
      3088      3089      3091      3090      3089      3091      3089      3091      3092
      3089      3091      3093      3089      3091      3141      3092      3091      3093
      3092      3091      3141      3093      3091      3141      3082      3094      3095
      3082      3094      3096      3082      3094      3097      3095      3094      3096
      3095      3094      3097      3096      3094      3097      3094      3097      3098
      3094      3097      3099      3094      3097      3100      3098      3097      3099
      3098      3097      3100      3099      3097      3100      3097      3100      3101
      3097      3100      3102      3097      3100      3103      3101      3100      3102
      3101      3100      3103      3102      3100      3103      3100      3103      3104
      3100      3103      3105      3100      3103      3106      3104      3103      3105
      3104      3103      3106      3105      3103      3106      3103      3106      3107
      3103      3106      3108      3103      3106      3109      3107      3106      3108
      3107      3106      3109      3108      3106      3109      3106      3109      3110
      3106      3109      3111      3106      3109      3112      3110      3109      3111
      3110      3109      3112      3111      3109      3112      3109      3112      3113
      3109      3112      3114      3113      3112      3114      3112      3114      3115
      3112      3114      3116      3115      3114      3116      3114      3116      3117
      3114      3116      3118      3114      3116      3119      3117      3116      3118
      3117      3116      3119      3118      3116      3119      3116      3119      3120
      3116      3119      3121      3116      3119      3122      3120      3119      3121
      3120      3119      3122      3121      3119      3122      3119      3122      3123
      3119      3122      3124      3119      3122      3125      3123      3122      3124
      3123      3122      3125      3124      3122      3125      3122      3125      3126
      3122      3125      3127      3122      3125      3128      3126      3125      3127
      3126      3125      3128      3127      3125      3128      3125      3128      3129
      3125      3128      3130      3125      3128      3131      3129      3128      3130
      3129      3128      3131      3130      3128      3131      3128      3131      3132
      3128      3131      3133      3128      3131      3134      3132      3131      3133
      3132      3131      3134      3133      3131      3134      3131      3134      3135
      3131      3134      3136      3131      3134      3137      3135      3134      3136
      3135      3134      3137      3136      3134      3137      3134      3137      3138
      3134      3137      3139      3134      3137      3140      3138      3137      3139
      3138      3137      3140      3139      3137      3140      3091      3141      3142
      3091      3141      3143      3091      3141      3144      3142      3141      3143
      3142      3141      3144      3143      3141      3144      3141      3144      3145
      3141      3144      3146      3141      3144      3147      3145      3144      3146
      3145      3144      3147      3146      3144      3147      3144      3147      3148
      3144      3147      3149      3144      3147      3150      3148      3147      3149
      3148      3147      3150      3149      3147      3150      3147      3150      3151
      3147      3150      3152      3147      3150      3153      3151      3150      3152
      3151      3150      3153      3152      3150      3153      3150      3153      3154
      3150      3153      3155      3150      3153      3156      3154      3153      3155
      3154      3153      3156      3155      3153      3156      3153      3156      3157
      3153      3156      3158      3153      3156      3159      3157      3156      3158
      3157      3156      3159      3158      3156      3159      3156      3159      3160
      3156      3159      3161      3156      3159      3162      3160      3159      3161
      3160      3159      3162      3161      3159      3162      3159      3162      3163
      3159      3162      3164      3159      3162      3165      3163      3162      3164
      3163      3162      3165      3164      3162      3165      3162      3165      3166
      3162      3165      3167      3162      3165      3168      3166      3165      3167
      3166      3165      3168      3167      3165      3168      3165      3168      3169
      3165      3168      3170      3165      3168      3171      3169      3168      3170
      3169      3168      3171      3170      3168      3171      3168      3171      3172
      3168      3171      3173      3168      3171      3174      3172      3171      3173
      3172      3171      3174      3173      3171      3174      3171      3174      3175
      3171      3174      3176      3171      3174      3177      3175      3174      3176
      3175      3174      3177      3176      3174      3177      3174      3177      3178
      3174      3177      3179      3174      3177      3180      3178      3177      3179
      3178      3177      3180      3179      3177      3180      3177      3180      3181
      3177      3180      3182      3177      3180      3183      3181      3180      3182
      3181      3180      3183      3182      3180      3183      3185      3184      3186
      3185      3184      3187      3185      3184      3188      3186      3184      3187
      3186      3184      3188      3187      3184      3188      3184      3188      3189
      3184      3188      3190      3184      3188      3193      3189      3188      3190
      3189      3188      3193      3190      3188      3193      3188      3190      3191
      3188      3190      3192      3191      3190      3192      3188      3193      3194
      3188      3193      3195      3188      3193      3199      3194      3193      3195
      3194      3193      3199      3195      3193      3199      3197      3196      3198
      3197      3196      3199      3197      3196      3200      3198      3196      3199
      3198      3196      3200      3199      3196      3200      3193      3199      3196
      3196      3200      3201      3200      3201      3202      3200      3201      3203
      3200      3201      3204      3202      3201      3203      3202      3201      3204
      3203      3201      3204      3201      3204      3205      3201      3204      3206
      3201      3204      3212      3205      3204      3206      3205      3204      3212
      3206      3204      3212      3204      3206      3207      3206      3207      3208
      3206      3207      3209      3208      3207      3209      3207      3209      3210
      3207      3209      3211      3207      3209      3221      3210      3209      3211
      3210      3209      3221      3211      3209      3221      3204      3212      3213
      3204      3212      3214      3204      3212      3215      3213      3212      3214
      3213      3212      3215      3214      3212      3215      3212      3215      3216
      3215      3216      3217      3215      3216      3218      3217      3216      3218
      3216      3218      3219      3216      3218      3220      3216      3218      3268
      3219      3218      3220      3219      3218      3268      3220      3218      3268
      3209      3221      3222      3209      3221      3223      3209      3221      3224
      3222      3221      3223      3222      3221      3224      3223      3221      3224
      3221      3224      3225      3221      3224      3226      3221      3224      3227
      3225      3224      3226      3225      3224      3227      3226      3224      3227
      3224      3227      3228      3224      3227      3229      3224      3227      3230
      3228      3227      3229      3228      3227      3230      3229      3227      3230
      3227      3230      3231      3227      3230      3232      3227      3230      3233
      3231      3230      3232      3231      3230      3233      3232      3230      3233
      3230      3233      3234      3230      3233      3235      3230      3233      3236
      3234      3233      3235      3234      3233      3236      3235      3233      3236
      3233      3236      3237      3233      3236      3238      3233      3236      3239
      3237      3236      3238      3237      3236      3239      3238      3236      3239
      3236      3239      3240      3236      3239      3241      3240      3239      3241
      3239      3241      3242      3239      3241      3243      3242      3241      3243
      3241      3243      3244      3241      3243      3245      3241      3243      3246
      3244      3243      3245      3244      3243      3246      3245      3243      3246
      3243      3246      3247      3243      3246      3248      3243      3246      3249
      3247      3246      3248      3247      3246      3249      3248      3246      3249
      3246      3249      3250      3246      3249      3251      3246      3249      3252
      3250      3249      3251      3250      3249      3252      3251      3249      3252
      3249      3252      3253      3249      3252      3254      3249      3252      3255
      3253      3252      3254      3253      3252      3255      3254      3252      3255
      3252      3255      3256      3252      3255      3257      3252      3255      3258
      3256      3255      3257      3256      3255      3258      3257      3255      3258
      3255      3258      3259      3255      3258      3260      3255      3258      3261
      3259      3258      3260      3259      3258      3261      3260      3258      3261
      3258      3261      3262      3258      3261      3263      3258      3261      3264
      3262      3261      3263      3262      3261      3264      3263      3261      3264
      3261      3264      3265      3261      3264      3266      3261      3264      3267
      3265      3264      3266      3265      3264      3267      3266      3264      3267
      3218      3268      3269      3218      3268      3270      3218      3268      3271
      3269      3268      3270      3269      3268      3271      3270      3268      3271
      3268      3271      3272      3268      3271      3273      3268      3271      3274
      3272      3271      3273      3272      3271      3274      3273      3271      3274
      3271      3274      3275      3271      3274      3276      3271      3274      3277
      3275      3274      3276      3275      3274      3277      3276      3274      3277
      3274      3277      3278      3274      3277      3279      3274      3277      3280
      3278      3277      3279      3278      3277      3280      3279      3277      3280
      3277      3280      3281      3277      3280      3282      3277      3280      3283
      3281      3280      3282      3281      3280      3283      3282      3280      3283
      3280      3283      3284      3280      3283      3285      3280      3283      3286
      3284      3283      3285      3284      3283      3286      3285      3283      3286
      3283      3286      3287      3283      3286      3288      3283      3286      3289
      3287      3286      3288      3287      3286      3289      3288      3286      3289
      3286      3289      3290      3286      3289      3291      3286      3289      3292
      3290      3289      3291      3290      3289      3292      3291      3289      3292
      3289      3292      3293      3289      3292      3294      3289      3292      3295
      3293      3292      3294      3293      3292      3295      3294      3292      3295
      3292      3295      3296      3292      3295      3297      3292      3295      3298
      3296      3295      3297      3296      3295      3298      3297      3295      3298
      3295      3298      3299      3295      3298      3300      3295      3298      3301
      3299      3298      3300      3299      3298      3301      3300      3298      3301
      3298      3301      3302      3298      3301      3303      3298      3301      3304
      3302      3301      3303      3302      3301      3304      3303      3301      3304
      3301      3304      3305      3301      3304      3306      3301      3304      3307
      3305      3304      3306      3305      3304      3307      3306      3304      3307
      3304      3307      3308      3304      3307      3309      3304      3307      3310
      3308      3307      3309      3308      3307      3310      3309      3307      3310
      3312      3311      3315      3312      3311      3319      3312      3311      3323
      3315      3311      3319      3315      3311      3323      3319      3311      3323
      3311      3312      3313      3311      3312      3314      3311      3312      3327
      3313      3312      3314      3313      3312      3327      3314      3312      3327
      3311      3315      3316      3311      3315      3317      3311      3315      3318
      3316      3315      3317      3316      3315      3318      3317      3315      3318
      3311      3319      3320      3311      3319      3321      3311      3319      3322
      3320      3319      3321      3320      3319      3322      3321      3319      3322
      3311      3323      3324      3311      3323      3325      3311      3323      3326
      3324      3323      3325      3324      3323      3326      3325      3323      3326
      3312      3327      3328      3312      3327      3329      3312      3327      3333
      3328      3327      3329      3328      3327      3333      3329      3327      3333
      3331      3330      3332      3331      3330      3333      3331      3330      3334
      3332      3330      3333      3332      3330      3334      3333      3330      3334
      3327      3333      3330      3330      3334      3335      3334      3335      3336
      3334      3335      3337      3334      3335      3338      3336      3335      3337
      3336      3335      3338      3337      3335      3338      3335      3338      3339
      3335      3338      3340      3335      3338      3346      3339      3338      3340
      3339      3338      3346      3340      3338      3346      3338      3340      3341
      3340      3341      3342      3340      3341      3343      3342      3341      3343
      3341      3343      3344      3341      3343      3345      3341      3343      3355
      3344      3343      3345      3344      3343      3355      3345      3343      3355
      3338      3346      3347      3338      3346      3348      3338      3346      3349
      3347      3346      3348      3347      3346      3349      3348      3346      3349
      3346      3349      3350      3349      3350      3351      3349      3350      3352
      3351      3350      3352      3350      3352      3353      3350      3352      3354
      3350      3352      3402      3353      3352      3354      3353      3352      3402
      3354      3352      3402      3343      3355      3356      3343      3355      3357
      3343      3355      3358      3356      3355      3357      3356      3355      3358
      3357      3355      3358      3355      3358      3359      3355      3358      3360
      3355      3358      3361      3359      3358      3360      3359      3358      3361
      3360      3358      3361      3358      3361      3362      3358      3361      3363
      3358      3361      3364      3362      3361      3363      3362      3361      3364
      3363      3361      3364      3361      3364      3365      3361      3364      3366
      3361      3364      3367      3365      3364      3366      3365      3364      3367
      3366      3364      3367      3364      3367      3368      3364      3367      3369
      3364      3367      3370      3368      3367      3369      3368      3367      3370
      3369      3367      3370      3367      3370      3371      3367      3370      3372
      3367      3370      3373      3371      3370      3372      3371      3370      3373
      3372      3370      3373      3370      3373      3374      3370      3373      3375
      3374      3373      3375      3373      3375      3376      3373      3375      3377
      3376      3375      3377      3375      3377      3378      3375      3377      3379
      3375      3377      3380      3378      3377      3379      3378      3377      3380
      3379      3377      3380      3377      3380      3381      3377      3380      3382
      3377      3380      3383      3381      3380      3382      3381      3380      3383
      3382      3380      3383      3380      3383      3384      3380      3383      3385
      3380      3383      3386      3384      3383      3385      3384      3383      3386
      3385      3383      3386      3383      3386      3387      3383      3386      3388
      3383      3386      3389      3387      3386      3388      3387      3386      3389
      3388      3386      3389      3386      3389      3390      3386      3389      3391
      3386      3389      3392      3390      3389      3391      3390      3389      3392
      3391      3389      3392      3389      3392      3393      3389      3392      3394
      3389      3392      3395      3393      3392      3394      3393      3392      3395
      3394      3392      3395      3392      3395      3396      3392      3395      3397
      3392      3395      3398      3396      3395      3397      3396      3395      3398
      3397      3395      3398      3395      3398      3399      3395      3398      3400
      3395      3398      3401      3399      3398      3400      3399      3398      3401
      3400      3398      3401      3352      3402      3403      3352      3402      3404
      3352      3402      3405      3403      3402      3404      3403      3402      3405
      3404      3402      3405      3402      3405      3406      3402      3405      3407
      3402      3405      3408      3406      3405      3407      3406      3405      3408
      3407      3405      3408      3405      3408      3409      3405      3408      3410
      3405      3408      3411      3409      3408      3410      3409      3408      3411
      3410      3408      3411      3408      3411      3412      3408      3411      3413
      3408      3411      3414      3412      3411      3413      3412      3411      3414
      3413      3411      3414      3411      3414      3415      3411      3414      3416
      3411      3414      3417      3415      3414      3416      3415      3414      3417
      3416      3414      3417      3414      3417      3418      3414      3417      3419
      3414      3417      3420      3418      3417      3419      3418      3417      3420
      3419      3417      3420      3417      3420      3421      3417      3420      3422
      3417      3420      3423      3421      3420      3422      3421      3420      3423
      3422      3420      3423      3420      3423      3424      3420      3423      3425
      3420      3423      3426      3424      3423      3425      3424      3423      3426
      3425      3423      3426      3423      3426      3427      3423      3426      3428
      3423      3426      3429      3427      3426      3428      3427      3426      3429
      3428      3426      3429      3426      3429      3430      3426      3429      3431
      3426      3429      3432      3430      3429      3431      3430      3429      3432
      3431      3429      3432      3429      3432      3433      3429      3432      3434
      3429      3432      3435      3433      3432      3434      3433      3432      3435
      3434      3432      3435      3432      3435      3436      3432      3435      3437
      3432      3435      3438      3436      3435      3437      3436      3435      3438
      3437      3435      3438      3435      3438      3439      3435      3438      3440
      3435      3438      3441      3439      3438      3440      3439      3438      3441
      3440      3438      3441      3438      3441      3442      3438      3441      3443
      3438      3441      3444      3442      3441      3443      3442      3441      3444
      3443      3441      3444      3446      3445      3449      3446      3445      3453
      3446      3445      3457      3449      3445      3453      3449      3445      3457
      3453      3445      3457      3445      3446      3447      3445      3446      3448
      3445      3446      3461      3447      3446      3448      3447      3446      3461
      3448      3446      3461      3445      3449      3450      3445      3449      3451
      3445      3449      3452      3450      3449      3451      3450      3449      3452
      3451      3449      3452      3445      3453      3454      3445      3453      3455
      3445      3453      3456      3454      3453      3455      3454      3453      3456
      3455      3453      3456      3445      3457      3458      3445      3457      3459
      3445      3457      3460      3458      3457      3459      3458      3457      3460
      3459      3457      3460      3446      3461      3462      3446      3461      3463
      3446      3461      3467      3462      3461      3463      3462      3461      3467
      3463      3461      3467      3465      3464      3466      3465      3464      3467
      3465      3464      3468      3466      3464      3467      3466      3464      3468
      3467      3464      3468      3461      3467      3464      3464      3468      3469
      3468      3469      3470      3468      3469      3471      3468      3469      3472
      3470      3469      3471      3470      3469      3472      3471      3469      3472
      3469      3472      3473      3469      3472      3474      3469      3472      3480
      3473      3472      3474      3473      3472      3480      3474      3472      3480
      3472      3474      3475      3474      3475      3476      3474      3475      3477
      3476      3475      3477      3475      3477      3478      3475      3477      3479
      3475      3477      3489      3478      3477      3479      3478      3477      3489
      3479      3477      3489      3472      3480      3481      3472      3480      3482
      3472      3480      3483      3481      3480      3482      3481      3480      3483
      3482      3480      3483      3480      3483      3484      3483      3484      3485
      3483      3484      3486      3485      3484      3486      3484      3486      3487
      3484      3486      3488      3484      3486      3536      3487      3486      3488
      3487      3486      3536      3488      3486      3536      3477      3489      3490
      3477      3489      3491      3477      3489      3492      3490      3489      3491
      3490      3489      3492      3491      3489      3492      3489      3492      3493
      3489      3492      3494      3489      3492      3495      3493      3492      3494
      3493      3492      3495      3494      3492      3495      3492      3495      3496
      3492      3495      3497      3492      3495      3498      3496      3495      3497
      3496      3495      3498      3497      3495      3498      3495      3498      3499
      3495      3498      3500      3495      3498      3501      3499      3498      3500
      3499      3498      3501      3500      3498      3501      3498      3501      3502
      3498      3501      3503      3498      3501      3504      3502      3501      3503
      3502      3501      3504      3503      3501      3504      3501      3504      3505
      3501      3504      3506      3501      3504      3507      3505      3504      3506
      3505      3504      3507      3506      3504      3507      3504      3507      3508
      3504      3507      3509      3508      3507      3509      3507      3509      3510
      3507      3509      3511      3510      3509      3511      3509      3511      3512
      3509      3511      3513      3509      3511      3514      3512      3511      3513
      3512      3511      3514      3513      3511      3514      3511      3514      3515
      3511      3514      3516      3511      3514      3517      3515      3514      3516
      3515      3514      3517      3516      3514      3517      3514      3517      3518
      3514      3517      3519      3514      3517      3520      3518      3517      3519
      3518      3517      3520      3519      3517      3520      3517      3520      3521
      3517      3520      3522      3517      3520      3523      3521      3520      3522
      3521      3520      3523      3522      3520      3523      3520      3523      3524
      3520      3523      3525      3520      3523      3526      3524      3523      3525
      3524      3523      3526      3525      3523      3526      3523      3526      3527
      3523      3526      3528      3523      3526      3529      3527      3526      3528
      3527      3526      3529      3528      3526      3529      3526      3529      3530
      3526      3529      3531      3526      3529      3532      3530      3529      3531
      3530      3529      3532      3531      3529      3532      3529      3532      3533
      3529      3532      3534      3529      3532      3535      3533      3532      3534
      3533      3532      3535      3534      3532      3535      3486      3536      3537
      3486      3536      3538      3486      3536      3539      3537      3536      3538
      3537      3536      3539      3538      3536      3539      3536      3539      3540
      3536      3539      3541      3536      3539      3542      3540      3539      3541
      3540      3539      3542      3541      3539      3542      3539      3542      3543
      3539      3542      3544      3539      3542      3545      3543      3542      3544
      3543      3542      3545      3544      3542      3545      3542      3545      3546
      3542      3545      3547      3542      3545      3548      3546      3545      3547
      3546      3545      3548      3547      3545      3548      3545      3548      3549
      3545      3548      3550      3545      3548      3551      3549      3548      3550
      3549      3548      3551      3550      3548      3551      3548      3551      3552
      3548      3551      3553      3548      3551      3554      3552      3551      3553
      3552      3551      3554      3553      3551      3554      3551      3554      3555
      3551      3554      3556      3551      3554      3557      3555      3554      3556
      3555      3554      3557      3556      3554      3557      3554      3557      3558
      3554      3557      3559      3554      3557      3560      3558      3557      3559
      3558      3557      3560      3559      3557      3560      3557      3560      3561
      3557      3560      3562      3557      3560      3563      3561      3560      3562
      3561      3560      3563      3562      3560      3563      3560      3563      3564
      3560      3563      3565      3560      3563      3566      3564      3563      3565
      3564      3563      3566      3565      3563      3566      3563      3566      3567
      3563      3566      3568      3563      3566      3569      3567      3566      3568
      3567      3566      3569      3568      3566      3569      3566      3569      3570
      3566      3569      3571      3566      3569      3572      3570      3569      3571
      3570      3569      3572      3571      3569      3572      3569      3572      3573
      3569      3572      3574      3569      3572      3575      3573      3572      3574
      3573      3572      3575      3574      3572      3575      3572      3575      3576
      3572      3575      3577      3572      3575      3578      3576      3575      3577
      3576      3575      3578      3577      3575      3578      3580      3579      3583
      3580      3579      3587      3580      3579      3591      3583      3579      3587
      3583      3579      3591      3587      3579      3591      3579      3580      3581
      3579      3580      3582      3579      3580      3595      3581      3580      3582
      3581      3580      3595      3582      3580      3595      3579      3583      3584
      3579      3583      3585      3579      3583      3586      3584      3583      3585
      3584      3583      3586      3585      3583      3586      3579      3587      3588
      3579      3587      3589      3579      3587      3590      3588      3587      3589
      3588      3587      3590      3589      3587      3590      3579      3591      3592
      3579      3591      3593      3579      3591      3594      3592      3591      3593
      3592      3591      3594      3593      3591      3594      3580      3595      3596
      3580      3595      3597      3580      3595      3601      3596      3595      3597
      3596      3595      3601      3597      3595      3601      3599      3598      3600
      3599      3598      3601      3599      3598      3602      3600      3598      3601
      3600      3598      3602      3601      3598      3602      3595      3601      3598
      3598      3602      3603      3602      3603      3604      3602      3603      3605
      3602      3603      3606      3604      3603      3605      3604      3603      3606
      3605      3603      3606      3603      3606      3607      3603      3606      3608
      3603      3606      3614      3607      3606      3608      3607      3606      3614
      3608      3606      3614      3606      3608      3609      3608      3609      3610
      3608      3609      3611      3610      3609      3611      3609      3611      3612
      3609      3611      3613      3609      3611      3623      3612      3611      3613
      3612      3611      3623      3613      3611      3623      3606      3614      3615
      3606      3614      3616      3606      3614      3617      3615      3614      3616
      3615      3614      3617      3616      3614      3617      3614      3617      3618
      3617      3618      3619      3617      3618      3620      3619      3618      3620
      3618      3620      3621      3618      3620      3622      3618      3620      3670
      3621      3620      3622      3621      3620      3670      3622      3620      3670
      3611      3623      3624      3611      3623      3625      3611      3623      3626
      3624      3623      3625      3624      3623      3626      3625      3623      3626
      3623      3626      3627      3623      3626      3628      3623      3626      3629
      3627      3626      3628      3627      3626      3629      3628      3626      3629
      3626      3629      3630      3626      3629      3631      3626      3629      3632
      3630      3629      3631      3630      3629      3632      3631      3629      3632
      3629      3632      3633      3629      3632      3634      3629      3632      3635
      3633      3632      3634      3633      3632      3635      3634      3632      3635
      3632      3635      3636      3632      3635      3637      3632      3635      3638
      3636      3635      3637      3636      3635      3638      3637      3635      3638
      3635      3638      3639      3635      3638      3640      3635      3638      3641
      3639      3638      3640      3639      3638      3641      3640      3638      3641
      3638      3641      3642      3638      3641      3643      3642      3641      3643
      3641      3643      3644      3641      3643      3645      3644      3643      3645
      3643      3645      3646      3643      3645      3647      3643      3645      3648
      3646      3645      3647      3646      3645      3648      3647      3645      3648
      3645      3648      3649      3645      3648      3650      3645      3648      3651
      3649      3648      3650      3649      3648      3651      3650      3648      3651
      3648      3651      3652      3648      3651      3653      3648      3651      3654
      3652      3651      3653      3652      3651      3654      3653      3651      3654
      3651      3654      3655      3651      3654      3656      3651      3654      3657
      3655      3654      3656      3655      3654      3657      3656      3654      3657
      3654      3657      3658      3654      3657      3659      3654      3657      3660
      3658      3657      3659      3658      3657      3660      3659      3657      3660
      3657      3660      3661      3657      3660      3662      3657      3660      3663
      3661      3660      3662      3661      3660      3663      3662      3660      3663
      3660      3663      3664      3660      3663      3665      3660      3663      3666
      3664      3663      3665      3664      3663      3666      3665      3663      3666
      3663      3666      3667      3663      3666      3668      3663      3666      3669
      3667      3666      3668      3667      3666      3669      3668      3666      3669
      3620      3670      3671      3620      3670      3672      3620      3670      3673
      3671      3670      3672      3671      3670      3673      3672      3670      3673
      3670      3673      3674      3670      3673      3675      3670      3673      3676
      3674      3673      3675      3674      3673      3676      3675      3673      3676
      3673      3676      3677      3673      3676      3678      3673      3676      3679
      3677      3676      3678      3677      3676      3679      3678      3676      3679
      3676      3679      3680      3676      3679      3681      3676      3679      3682
      3680      3679      3681      3680      3679      3682      3681      3679      3682
      3679      3682      3683      3679      3682      3684      3679      3682      3685
      3683      3682      3684      3683      3682      3685      3684      3682      3685
      3682      3685      3686      3682      3685      3687      3682      3685      3688
      3686      3685      3687      3686      3685      3688      3687      3685      3688
      3685      3688      3689      3685      3688      3690      3685      3688      3691
      3689      3688      3690      3689      3688      3691      3690      3688      3691
      3688      3691      3692      3688      3691      3693      3688      3691      3694
      3692      3691      3693      3692      3691      3694      3693      3691      3694
      3691      3694      3695      3691      3694      3696      3691      3694      3697
      3695      3694      3696      3695      3694      3697      3696      3694      3697
      3694      3697      3698      3694      3697      3699      3694      3697      3700
      3698      3697      3699      3698      3697      3700      3699      3697      3700
      3697      3700      3701      3697      3700      3702      3697      3700      3703
      3701      3700      3702      3701      3700      3703      3702      3700      3703
      3700      3703      3704      3700      3703      3705      3700      3703      3706
      3704      3703      3705      3704      3703      3706      3705      3703      3706
      3703      3706      3707      3703      3706      3708      3703      3706      3709
      3707      3706      3708      3707      3706      3709      3708      3706      3709
      3706      3709      3710      3706      3709      3711      3706      3709      3712
      3710      3709      3711      3710      3709      3712      3711      3709      3712
      3714      3713      3717      3714      3713      3721      3714      3713      3725
      3717      3713      3721      3717      3713      3725      3721      3713      3725
      3713      3714      3715      3713      3714      3716      3713      3714      3729
      3715      3714      3716      3715      3714      3729      3716      3714      3729
      3713      3717      3718      3713      3717      3719      3713      3717      3720
      3718      3717      3719      3718      3717      3720      3719      3717      3720
      3713      3721      3722      3713      3721      3723      3713      3721      3724
      3722      3721      3723      3722      3721      3724      3723      3721      3724
      3713      3725      3726      3713      3725      3727      3713      3725      3728
      3726      3725      3727      3726      3725      3728      3727      3725      3728
      3714      3729      3730      3714      3729      3731      3714      3729      3735
      3730      3729      3731      3730      3729      3735      3731      3729      3735
      3733      3732      3734      3733      3732      3735      3733      3732      3736
      3734      3732      3735      3734      3732      3736      3735      3732      3736
      3729      3735      3732      3732      3736      3737      3736      3737      3738
      3736      3737      3739      3736      3737      3740      3738      3737      3739
      3738      3737      3740      3739      3737      3740      3737      3740      3741
      3737      3740      3742      3737      3740      3748      3741      3740      3742
      3741      3740      3748      3742      3740      3748      3740      3742      3743
      3742      3743      3744      3742      3743      3745      3744      3743      3745
      3743      3745      3746      3743      3745      3747      3743      3745      3757
      3746      3745      3747      3746      3745      3757      3747      3745      3757
      3740      3748      3749      3740      3748      3750      3740      3748      3751
      3749      3748      3750      3749      3748      3751      3750      3748      3751
      3748      3751      3752      3751      3752      3753      3751      3752      3754
      3753      3752      3754      3752      3754      3755      3752      3754      3756
      3752      3754      3804      3755      3754      3756      3755      3754      3804
      3756      3754      3804      3745      3757      3758      3745      3757      3759
      3745      3757      3760      3758      3757      3759      3758      3757      3760
      3759      3757      3760      3757      3760      3761      3757      3760      3762
      3757      3760      3763      3761      3760      3762      3761      3760      3763
      3762      3760      3763      3760      3763      3764      3760      3763      3765
      3760      3763      3766      3764      3763      3765      3764      3763      3766
      3765      3763      3766      3763      3766      3767      3763      3766      3768
      3763      3766      3769      3767      3766      3768      3767      3766      3769
      3768      3766      3769      3766      3769      3770      3766      3769      3771
      3766      3769      3772      3770      3769      3771      3770      3769      3772
      3771      3769      3772      3769      3772      3773      3769      3772      3774
      3769      3772      3775      3773      3772      3774      3773      3772      3775
      3774      3772      3775      3772      3775      3776      3772      3775      3777
      3776      3775      3777      3775      3777      3778      3775      3777      3779
      3778      3777      3779      3777      3779      3780      3777      3779      3781
      3777      3779      3782      3780      3779      3781      3780      3779      3782
      3781      3779      3782      3779      3782      3783      3779      3782      3784
      3779      3782      3785      3783      3782      3784      3783      3782      3785
      3784      3782      3785      3782      3785      3786      3782      3785      3787
      3782      3785      3788      3786      3785      3787      3786      3785      3788
      3787      3785      3788      3785      3788      3789      3785      3788      3790
      3785      3788      3791      3789      3788      3790      3789      3788      3791
      3790      3788      3791      3788      3791      3792      3788      3791      3793
      3788      3791      3794      3792      3791      3793      3792      3791      3794
      3793      3791      3794      3791      3794      3795      3791      3794      3796
      3791      3794      3797      3795      3794      3796      3795      3794      3797
      3796      3794      3797      3794      3797      3798      3794      3797      3799
      3794      3797      3800      3798      3797      3799      3798      3797      3800
      3799      3797      3800      3797      3800      3801      3797      3800      3802
      3797      3800      3803      3801      3800      3802      3801      3800      3803
      3802      3800      3803      3754      3804      3805      3754      3804      3806
      3754      3804      3807      3805      3804      3806      3805      3804      3807
      3806      3804      3807      3804      3807      3808      3804      3807      3809
      3804      3807      3810      3808      3807      3809      3808      3807      3810
      3809      3807      3810      3807      3810      3811      3807      3810      3812
      3807      3810      3813      3811      3810      3812      3811      3810      3813
      3812      3810      3813      3810      3813      3814      3810      3813      3815
      3810      3813      3816      3814      3813      3815      3814      3813      3816
      3815      3813      3816      3813      3816      3817      3813      3816      3818
      3813      3816      3819      3817      3816      3818      3817      3816      3819
      3818      3816      3819      3816      3819      3820      3816      3819      3821
      3816      3819      3822      3820      3819      3821      3820      3819      3822
      3821      3819      3822      3819      3822      3823      3819      3822      3824
      3819      3822      3825      3823      3822      3824      3823      3822      3825
      3824      3822      3825      3822      3825      3826      3822      3825      3827
      3822      3825      3828      3826      3825      3827      3826      3825      3828
      3827      3825      3828      3825      3828      3829      3825      3828      3830
      3825      3828      3831      3829      3828      3830      3829      3828      3831
      3830      3828      3831      3828      3831      3832      3828      3831      3833
      3828      3831      3834      3832      3831      3833      3832      3831      3834
      3833      3831      3834      3831      3834      3835      3831      3834      3836
      3831      3834      3837      3835      3834      3836      3835      3834      3837
      3836      3834      3837      3834      3837      3838      3834      3837      3839
      3834      3837      3840      3838      3837      3839      3838      3837      3840
      3839      3837      3840      3837      3840      3841      3837      3840      3842
      3837      3840      3843      3841      3840      3842      3841      3840      3843
      3842      3840      3843      3840      3843      3844      3840      3843      3845
      3840      3843      3846      3844      3843      3845      3844      3843      3846
      3845      3843      3846      3848      3847      3851      3848      3847      3855
      3848      3847      3859      3851      3847      3855      3851      3847      3859
      3855      3847      3859      3847      3848      3849      3847      3848      3850
      3847      3848      3863      3849      3848      3850      3849      3848      3863
      3850      3848      3863      3847      3851      3852      3847      3851      3853
      3847      3851      3854      3852      3851      3853      3852      3851      3854
      3853      3851      3854      3847      3855      3856      3847      3855      3857
      3847      3855      3858      3856      3855      3857      3856      3855      3858
      3857      3855      3858      3847      3859      3860      3847      3859      3861
      3847      3859      3862      3860      3859      3861      3860      3859      3862
      3861      3859      3862      3848      3863      3864      3848      3863      3865
      3848      3863      3869      3864      3863      3865      3864      3863      3869
      3865      3863      3869      3867      3866      3868      3867      3866      3869
      3867      3866      3870      3868      3866      3869      3868      3866      3870
      3869      3866      3870      3863      3869      3866      3866      3870      3871
      3870      3871      3872      3870      3871      3873      3870      3871      3874
      3872      3871      3873      3872      3871      3874      3873      3871      3874
      3871      3874      3875      3871      3874      3876      3871      3874      3882
      3875      3874      3876      3875      3874      3882      3876      3874      3882
      3874      3876      3877      3876      3877      3878      3876      3877      3879
      3878      3877      3879      3877      3879      3880      3877      3879      3881
      3877      3879      3891      3880      3879      3881      3880      3879      3891
      3881      3879      3891      3874      3882      3883      3874      3882      3884
      3874      3882      3885      3883      3882      3884      3883      3882      3885
      3884      3882      3885      3882      3885      3886      3885      3886      3887
      3885      3886      3888      3887      3886      3888      3886      3888      3889
      3886      3888      3890      3886      3888      3938      3889      3888      3890
      3889      3888      3938      3890      3888      3938      3879      3891      3892
      3879      3891      3893      3879      3891      3894      3892      3891      3893
      3892      3891      3894      3893      3891      3894      3891      3894      3895
      3891      3894      3896      3891      3894      3897      3895      3894      3896
      3895      3894      3897      3896      3894      3897      3894      3897      3898
      3894      3897      3899      3894      3897      3900      3898      3897      3899
      3898      3897      3900      3899      3897      3900      3897      3900      3901
      3897      3900      3902      3897      3900      3903      3901      3900      3902
      3901      3900      3903      3902      3900      3903      3900      3903      3904
      3900      3903      3905      3900      3903      3906      3904      3903      3905
      3904      3903      3906      3905      3903      3906      3903      3906      3907
      3903      3906      3908      3903      3906      3909      3907      3906      3908
      3907      3906      3909      3908      3906      3909      3906      3909      3910
      3906      3909      3911      3910      3909      3911      3909      3911      3912
      3909      3911      3913      3912      3911      3913      3911      3913      3914
      3911      3913      3915      3911      3913      3916      3914      3913      3915
      3914      3913      3916      3915      3913      3916      3913      3916      3917
      3913      3916      3918      3913      3916      3919      3917      3916      3918
      3917      3916      3919      3918      3916      3919      3916      3919      3920
      3916      3919      3921      3916      3919      3922      3920      3919      3921
      3920      3919      3922      3921      3919      3922      3919      3922      3923
      3919      3922      3924      3919      3922      3925      3923      3922      3924
      3923      3922      3925      3924      3922      3925      3922      3925      3926
      3922      3925      3927      3922      3925      3928      3926      3925      3927
      3926      3925      3928      3927      3925      3928      3925      3928      3929
      3925      3928      3930      3925      3928      3931      3929      3928      3930
      3929      3928      3931      3930      3928      3931      3928      3931      3932
      3928      3931      3933      3928      3931      3934      3932      3931      3933
      3932      3931      3934      3933      3931      3934      3931      3934      3935
      3931      3934      3936      3931      3934      3937      3935      3934      3936
      3935      3934      3937      3936      3934      3937      3888      3938      3939
      3888      3938      3940      3888      3938      3941      3939      3938      3940
      3939      3938      3941      3940      3938      3941      3938      3941      3942
      3938      3941      3943      3938      3941      3944      3942      3941      3943
      3942      3941      3944      3943      3941      3944      3941      3944      3945
      3941      3944      3946      3941      3944      3947      3945      3944      3946
      3945      3944      3947      3946      3944      3947      3944      3947      3948
      3944      3947      3949      3944      3947      3950      3948      3947      3949
      3948      3947      3950      3949      3947      3950      3947      3950      3951
      3947      3950      3952      3947      3950      3953      3951      3950      3952
      3951      3950      3953      3952      3950      3953      3950      3953      3954
      3950      3953      3955      3950      3953      3956      3954      3953      3955
      3954      3953      3956      3955      3953      3956      3953      3956      3957
      3953      3956      3958      3953      3956      3959      3957      3956      3958
      3957      3956      3959      3958      3956      3959      3956      3959      3960
      3956      3959      3961      3956      3959      3962      3960      3959      3961
      3960      3959      3962      3961      3959      3962      3959      3962      3963
      3959      3962      3964      3959      3962      3965      3963      3962      3964
      3963      3962      3965      3964      3962      3965      3962      3965      3966
      3962      3965      3967      3962      3965      3968      3966      3965      3967
      3966      3965      3968      3967      3965      3968      3965      3968      3969
      3965      3968      3970      3965      3968      3971      3969      3968      3970
      3969      3968      3971      3970      3968      3971      3968      3971      3972
      3968      3971      3973      3968      3971      3974      3972      3971      3973
      3972      3971      3974      3973      3971      3974      3971      3974      3975
      3971      3974      3976      3971      3974      3977      3975      3974      3976
      3975      3974      3977      3976      3974      3977      3974      3977      3978
      3974      3977      3979      3974      3977      3980      3978      3977      3979
      3978      3977      3980      3979      3977      3980      3982      3981      3985
      3982      3981      3989      3982      3981      3993      3985      3981      3989
      3985      3981      3993      3989      3981      3993      3981      3982      3983
      3981      3982      3984      3981      3982      3997      3983      3982      3984
      3983      3982      3997      3984      3982      3997      3981      3985      3986
      3981      3985      3987      3981      3985      3988      3986      3985      3987
      3986      3985      3988      3987      3985      3988      3981      3989      3990
      3981      3989      3991      3981      3989      3992      3990      3989      3991
      3990      3989      3992      3991      3989      3992      3981      3993      3994
      3981      3993      3995      3981      3993      3996      3994      3993      3995
      3994      3993      3996      3995      3993      3996      3982      3997      3998
      3982      3997      3999      3982      3997      4003      3998      3997      3999
      3998      3997      4003      3999      3997      4003      4001      4000      4002
      4001      4000      4003      4001      4000      4004      4002      4000      4003
      4002      4000      4004      4003      4000      4004      3997      4003      4000
      4000      4004      4005      4004      4005      4006      4004      4005      4007
      4004      4005      4008      4006      4005      4007      4006      4005      4008
      4007      4005      4008      4005      4008      4009      4005      4008      4010
      4005      4008      4016      4009      4008      4010      4009      4008      4016
      4010      4008      4016      4008      4010      4011      4010      4011      4012
      4010      4011      4013      4012      4011      4013      4011      4013      4014
      4011      4013      4015      4011      4013      4025      4014      4013      4015
      4014      4013      4025      4015      4013      4025      4008      4016      4017
      4008      4016      4018      4008      4016      4019      4017      4016      4018
      4017      4016      4019      4018      4016      4019      4016      4019      4020
      4019      4020      4021      4019      4020      4022      4021      4020      4022
      4020      4022      4023      4020      4022      4024      4020      4022      4072
      4023      4022      4024      4023      4022      4072      4024      4022      4072
      4013      4025      4026      4013      4025      4027      4013      4025      4028
      4026      4025      4027      4026      4025      4028      4027      4025      4028
      4025      4028      4029      4025      4028      4030      4025      4028      4031
      4029      4028      4030      4029      4028      4031      4030      4028      4031
      4028      4031      4032      4028      4031      4033      4028      4031      4034
      4032      4031      4033      4032      4031      4034      4033      4031      4034
      4031      4034      4035      4031      4034      4036      4031      4034      4037
      4035      4034      4036      4035      4034      4037      4036      4034      4037
      4034      4037      4038      4034      4037      4039      4034      4037      4040
      4038      4037      4039      4038      4037      4040      4039      4037      4040
      4037      4040      4041      4037      4040      4042      4037      4040      4043
      4041      4040      4042      4041      4040      4043      4042      4040      4043
      4040      4043      4044      4040      4043      4045      4044      4043      4045
      4043      4045      4046      4043      4045      4047      4046      4045      4047
      4045      4047      4048      4045      4047      4049      4045      4047      4050
      4048      4047      4049      4048      4047      4050      4049      4047      4050
      4047      4050      4051      4047      4050      4052      4047      4050      4053
      4051      4050      4052      4051      4050      4053      4052      4050      4053
      4050      4053      4054      4050      4053      4055      4050      4053      4056
      4054      4053      4055      4054      4053      4056      4055      4053      4056
      4053      4056      4057      4053      4056      4058      4053      4056      4059
      4057      4056      4058      4057      4056      4059      4058      4056      4059
      4056      4059      4060      4056      4059      4061      4056      4059      4062
      4060      4059      4061      4060      4059      4062      4061      4059      4062
      4059      4062      4063      4059      4062      4064      4059      4062      4065
      4063      4062      4064      4063      4062      4065      4064      4062      4065
      4062      4065      4066      4062      4065      4067      4062      4065      4068
      4066      4065      4067      4066      4065      4068      4067      4065      4068
      4065      4068      4069      4065      4068      4070      4065      4068      4071
      4069      4068      4070      4069      4068      4071      4070      4068      4071
      4022      4072      4073      4022      4072      4074      4022      4072      4075
      4073      4072      4074      4073      4072      4075      4074      4072      4075
      4072      4075      4076      4072      4075      4077      4072      4075      4078
      4076      4075      4077      4076      4075      4078      4077      4075      4078
      4075      4078      4079      4075      4078      4080      4075      4078      4081
      4079      4078      4080      4079      4078      4081      4080      4078      4081
      4078      4081      4082      4078      4081      4083      4078      4081      4084
      4082      4081      4083      4082      4081      4084      4083      4081      4084
      4081      4084      4085      4081      4084      4086      4081      4084      4087
      4085      4084      4086      4085      4084      4087      4086      4084      4087
      4084      4087      4088      4084      4087      4089      4084      4087      4090
      4088      4087      4089      4088      4087      4090      4089      4087      4090
      4087      4090      4091      4087      4090      4092      4087      4090      4093
      4091      4090      4092      4091      4090      4093      4092      4090      4093
      4090      4093      4094      4090      4093      4095      4090      4093      4096
      4094      4093      4095      4094      4093      4096      4095      4093      4096
      4093      4096      4097      4093      4096      4098      4093      4096      4099
      4097      4096      4098      4097      4096      4099      4098      4096      4099
      4096      4099      4100      4096      4099      4101      4096      4099      4102
      4100      4099      4101      4100      4099      4102      4101      4099      4102
      4099      4102      4103      4099      4102      4104      4099      4102      4105
      4103      4102      4104      4103      4102      4105      4104      4102      4105
      4102      4105      4106      4102      4105      4107      4102      4105      4108
      4106      4105      4107      4106      4105      4108      4107      4105      4108
      4105      4108      4109      4105      4108      4110      4105      4108      4111
      4109      4108      4110      4109      4108      4111      4110      4108      4111
      4108      4111      4112      4108      4111      4113      4108      4111      4114
      4112      4111      4113      4112      4111      4114      4113      4111      4114
      4116      4115      4117      4116      4115      4118      4116      4115      4119
      4117      4115      4118      4117      4115      4119      4118      4115      4119
      4115      4119      4120      4115      4119      4121      4115      4119      4124
      4120      4119      4121      4120      4119      4124      4121      4119      4124
      4119      4121      4122      4119      4121      4123      4122      4121      4123
      4119      4124      4125      4119      4124      4126      4119      4124      4130
      4125      4124      4126      4125      4124      4130      4126      4124      4130
      4128      4127      4129      4128      4127      4130      4128      4127      4131
      4129      4127      4130      4129      4127      4131      4130      4127      4131
      4124      4130      4127      4127      4131      4132      4131      4132      4133
      4131      4132      4134      4131      4132      4135      4133      4132      4134
      4133      4132      4135      4134      4132      4135      4132      4135      4136
      4132      4135      4137      4132      4135      4143      4136      4135      4137
      4136      4135      4143      4137      4135      4143      4135      4137      4138
      4137      4138      4139      4137      4138      4140      4139      4138      4140
      4138      4140      4141      4138      4140      4142      4138      4140      4152
      4141      4140      4142      4141      4140      4152      4142      4140      4152
      4135      4143      4144      4135      4143      4145      4135      4143      4146
      4144      4143      4145      4144      4143      4146      4145      4143      4146
      4143      4146      4147      4146      4147      4148      4146      4147      4149
      4148      4147      4149      4147      4149      4150      4147      4149      4151
      4147      4149      4199      4150      4149      4151      4150      4149      4199
      4151      4149      4199      4140      4152      4153      4140      4152      4154
      4140      4152      4155      4153      4152      4154      4153      4152      4155
      4154      4152      4155      4152      4155      4156      4152      4155      4157
      4152      4155      4158      4156      4155      4157      4156      4155      4158
      4157      4155      4158      4155      4158      4159      4155      4158      4160
      4155      4158      4161      4159      4158      4160      4159      4158      4161
      4160      4158      4161      4158      4161      4162      4158      4161      4163
      4158      4161      4164      4162      4161      4163      4162      4161      4164
      4163      4161      4164      4161      4164      4165      4161      4164      4166
      4161      4164      4167      4165      4164      4166      4165      4164      4167
      4166      4164      4167      4164      4167      4168      4164      4167      4169
      4164      4167      4170      4168      4167      4169      4168      4167      4170
      4169      4167      4170      4167      4170      4171      4167      4170      4172
      4171      4170      4172      4170      4172      4173      4170      4172      4174
      4173      4172      4174      4172      4174      4175      4172      4174      4176
      4172      4174      4177      4175      4174      4176      4175      4174      4177
      4176      4174      4177      4174      4177      4178      4174      4177      4179
      4174      4177      4180      4178      4177      4179      4178      4177      4180
      4179      4177      4180      4177      4180      4181      4177      4180      4182
      4177      4180      4183      4181      4180      4182      4181      4180      4183
      4182      4180      4183      4180      4183      4184      4180      4183      4185
      4180      4183      4186      4184      4183      4185      4184      4183      4186
      4185      4183      4186      4183      4186      4187      4183      4186      4188
      4183      4186      4189      4187      4186      4188      4187      4186      4189
      4188      4186      4189      4186      4189      4190      4186      4189      4191
      4186      4189      4192      4190      4189      4191      4190      4189      4192
      4191      4189      4192      4189      4192      4193      4189      4192      4194
      4189      4192      4195      4193      4192      4194      4193      4192      4195
      4194      4192      4195      4192      4195      4196      4192      4195      4197
      4192      4195      4198      4196      4195      4197      4196      4195      4198
      4197      4195      4198      4149      4199      4200      4149      4199      4201
      4149      4199      4202      4200      4199      4201      4200      4199      4202
      4201      4199      4202      4199      4202      4203      4199      4202      4204
      4199      4202      4205      4203      4202      4204      4203      4202      4205
      4204      4202      4205      4202      4205      4206      4202      4205      4207
      4202      4205      4208      4206      4205      4207      4206      4205      4208
      4207      4205      4208      4205      4208      4209      4205      4208      4210
      4205      4208      4211      4209      4208      4210      4209      4208      4211
      4210      4208      4211      4208      4211      4212      4208      4211      4213
      4208      4211      4214      4212      4211      4213      4212      4211      4214
      4213      4211      4214      4211      4214      4215      4211      4214      4216
      4211      4214      4217      4215      4214      4216      4215      4214      4217
      4216      4214      4217      4214      4217      4218      4214      4217      4219
      4214      4217      4220      4218      4217      4219      4218      4217      4220
      4219      4217      4220      4217      4220      4221      4217      4220      4222
      4217      4220      4223      4221      4220      4222      4221      4220      4223
      4222      4220      4223      4220      4223      4224      4220      4223      4225
      4220      4223      4226      4224      4223      4225      4224      4223      4226
      4225      4223      4226      4223      4226      4227      4223      4226      4228
      4223      4226      4229      4227      4226      4228      4227      4226      4229
      4228      4226      4229      4226      4229      4230      4226      4229      4231
      4226      4229      4232      4230      4229      4231      4230      4229      4232
      4231      4229      4232      4229      4232      4233      4229      4232      4234
      4229      4232      4235      4233      4232      4234      4233      4232      4235
      4234      4232      4235      4232      4235      4236      4232      4235      4237
      4232      4235      4238      4236      4235      4237      4236      4235      4238
      4237      4235      4238      4235      4238      4239      4235      4238      4240
      4235      4238      4241      4239      4238      4240      4239      4238      4241
      4240      4238      4241      4243      4242      4246      4243      4242      4250
      4243      4242      4254      4246      4242      4250      4246      4242      4254
      4250      4242      4254      4242      4243      4244      4242      4243      4245
      4242      4243      4258      4244      4243      4245      4244      4243      4258
      4245      4243      4258      4242      4246      4247      4242      4246      4248
      4242      4246      4249      4247      4246      4248      4247      4246      4249
      4248      4246      4249      4242      4250      4251      4242      4250      4252
      4242      4250      4253      4251      4250      4252      4251      4250      4253
      4252      4250      4253      4242      4254      4255      4242      4254      4256
      4242      4254      4257      4255      4254      4256      4255      4254      4257
      4256      4254      4257      4243      4258      4259      4243      4258      4260
      4243      4258      4264      4259      4258      4260      4259      4258      4264
      4260      4258      4264      4262      4261      4263      4262      4261      4264
      4262      4261      4265      4263      4261      4264      4263      4261      4265
      4264      4261      4265      4258      4264      4261      4261      4265      4266
      4265      4266      4267      4265      4266      4268      4265      4266      4269
      4267      4266      4268      4267      4266      4269      4268      4266      4269
      4266      4269      4270      4266      4269      4271      4266      4269      4277
      4270      4269      4271      4270      4269      4277      4271      4269      4277
      4269      4271      4272      4271      4272      4273      4271      4272      4274
      4273      4272      4274      4272      4274      4275      4272      4274      4276
      4272      4274      4286      4275      4274      4276      4275      4274      4286
      4276      4274      4286      4269      4277      4278      4269      4277      4279
      4269      4277      4280      4278      4277      4279      4278      4277      4280
      4279      4277      4280      4277      4280      4281      4280      4281      4282
      4280      4281      4283      4282      4281      4283      4281      4283      4284
      4281      4283      4285      4281      4283      4333      4284      4283      4285
      4284      4283      4333      4285      4283      4333      4274      4286      4287
      4274      4286      4288      4274      4286      4289      4287      4286      4288
      4287      4286      4289      4288      4286      4289      4286      4289      4290
      4286      4289      4291      4286      4289      4292      4290      4289      4291
      4290      4289      4292      4291      4289      4292      4289      4292      4293
      4289      4292      4294      4289      4292      4295      4293      4292      4294
      4293      4292      4295      4294      4292      4295      4292      4295      4296
      4292      4295      4297      4292      4295      4298      4296      4295      4297
      4296      4295      4298      4297      4295      4298      4295      4298      4299
      4295      4298      4300      4295      4298      4301      4299      4298      4300
      4299      4298      4301      4300      4298      4301      4298      4301      4302
      4298      4301      4303      4298      4301      4304      4302      4301      4303
      4302      4301      4304      4303      4301      4304      4301      4304      4305
      4301      4304      4306      4305      4304      4306      4304      4306      4307
      4304      4306      4308      4307      4306      4308      4306      4308      4309
      4306      4308      4310      4306      4308      4311      4309      4308      4310
      4309      4308      4311      4310      4308      4311      4308      4311      4312
      4308      4311      4313      4308      4311      4314      4312      4311      4313
      4312      4311      4314      4313      4311      4314      4311      4314      4315
      4311      4314      4316      4311      4314      4317      4315      4314      4316
      4315      4314      4317      4316      4314      4317      4314      4317      4318
      4314      4317      4319      4314      4317      4320      4318      4317      4319
      4318      4317      4320      4319      4317      4320      4317      4320      4321
      4317      4320      4322      4317      4320      4323      4321      4320      4322
      4321      4320      4323      4322      4320      4323      4320      4323      4324
      4320      4323      4325      4320      4323      4326      4324      4323      4325
      4324      4323      4326      4325      4323      4326      4323      4326      4327
      4323      4326      4328      4323      4326      4329      4327      4326      4328
      4327      4326      4329      4328      4326      4329      4326      4329      4330
      4326      4329      4331      4326      4329      4332      4330      4329      4331
      4330      4329      4332      4331      4329      4332      4283      4333      4334
      4283      4333      4335      4283      4333      4336      4334      4333      4335
      4334      4333      4336      4335      4333      4336      4333      4336      4337
      4333      4336      4338      4333      4336      4339      4337      4336      4338
      4337      4336      4339      4338      4336      4339      4336      4339      4340
      4336      4339      4341      4336      4339      4342      4340      4339      4341
      4340      4339      4342      4341      4339      4342      4339      4342      4343
      4339      4342      4344      4339      4342      4345      4343      4342      4344
      4343      4342      4345      4344      4342      4345      4342      4345      4346
      4342      4345      4347      4342      4345      4348      4346      4345      4347
      4346      4345      4348      4347      4345      4348      4345      4348      4349
      4345      4348      4350      4345      4348      4351      4349      4348      4350
      4349      4348      4351      4350      4348      4351      4348      4351      4352
      4348      4351      4353      4348      4351      4354      4352      4351      4353
      4352      4351      4354      4353      4351      4354      4351      4354      4355
      4351      4354      4356      4351      4354      4357      4355      4354      4356
      4355      4354      4357      4356      4354      4357      4354      4357      4358
      4354      4357      4359      4354      4357      4360      4358      4357      4359
      4358      4357      4360      4359      4357      4360      4357      4360      4361
      4357      4360      4362      4357      4360      4363      4361      4360      4362
      4361      4360      4363      4362      4360      4363      4360      4363      4364
      4360      4363      4365      4360      4363      4366      4364      4363      4365
      4364      4363      4366      4365      4363      4366      4363      4366      4367
      4363      4366      4368      4363      4366      4369      4367      4366      4368
      4367      4366      4369      4368      4366      4369      4366      4369      4370
      4366      4369      4371      4366      4369      4372      4370      4369      4371
      4370      4369      4372      4371      4369      4372      4369      4372      4373
      4369      4372      4374      4369      4372      4375      4373      4372      4374
      4373      4372      4375      4374      4372      4375      4377      4376      4380
      4377      4376      4384      4377      4376      4388      4380      4376      4384
      4380      4376      4388      4384      4376      4388      4376      4377      4378
      4376      4377      4379      4376      4377      4392      4378      4377      4379
      4378      4377      4392      4379      4377      4392      4376      4380      4381
      4376      4380      4382      4376      4380      4383      4381      4380      4382
      4381      4380      4383      4382      4380      4383      4376      4384      4385
      4376      4384      4386      4376      4384      4387      4385      4384      4386
      4385      4384      4387      4386      4384      4387      4376      4388      4389
      4376      4388      4390      4376      4388      4391      4389      4388      4390
      4389      4388      4391      4390      4388      4391      4377      4392      4393
      4377      4392      4394      4377      4392      4398      4393      4392      4394
      4393      4392      4398      4394      4392      4398      4396      4395      4397
      4396      4395      4398      4396      4395      4399      4397      4395      4398
      4397      4395      4399      4398      4395      4399      4392      4398      4395
      4395      4399      4400      4399      4400      4401      4399      4400      4402
      4399      4400      4403      4401      4400      4402      4401      4400      4403
      4402      4400      4403      4400      4403      4404      4400      4403      4405
      4400      4403      4411      4404      4403      4405      4404      4403      4411
      4405      4403      4411      4403      4405      4406      4405      4406      4407
      4405      4406      4408      4407      4406      4408      4406      4408      4409
      4406      4408      4410      4406      4408      4420      4409      4408      4410
      4409      4408      4420      4410      4408      4420      4403      4411      4412
      4403      4411      4413      4403      4411      4414      4412      4411      4413
      4412      4411      4414      4413      4411      4414      4411      4414      4415
      4414      4415      4416      4414      4415      4417      4416      4415      4417
      4415      4417      4418      4415      4417      4419      4415      4417      4467
      4418      4417      4419      4418      4417      4467      4419      4417      4467
      4408      4420      4421      4408      4420      4422      4408      4420      4423
      4421      4420      4422      4421      4420      4423      4422      4420      4423
      4420      4423      4424      4420      4423      4425      4420      4423      4426
      4424      4423      4425      4424      4423      4426      4425      4423      4426
      4423      4426      4427      4423      4426      4428      4423      4426      4429
      4427      4426      4428      4427      4426      4429      4428      4426      4429
      4426      4429      4430      4426      4429      4431      4426      4429      4432
      4430      4429      4431      4430      4429      4432      4431      4429      4432
      4429      4432      4433      4429      4432      4434      4429      4432      4435
      4433      4432      4434      4433      4432      4435      4434      4432      4435
      4432      4435      4436      4432      4435      4437      4432      4435      4438
      4436      4435      4437      4436      4435      4438      4437      4435      4438
      4435      4438      4439      4435      4438      4440      4439      4438      4440
      4438      4440      4441      4438      4440      4442      4441      4440      4442
      4440      4442      4443      4440      4442      4444      4440      4442      4445
      4443      4442      4444      4443      4442      4445      4444      4442      4445
      4442      4445      4446      4442      4445      4447      4442      4445      4448
      4446      4445      4447      4446      4445      4448      4447      4445      4448
      4445      4448      4449      4445      4448      4450      4445      4448      4451
      4449      4448      4450      4449      4448      4451      4450      4448      4451
      4448      4451      4452      4448      4451      4453      4448      4451      4454
      4452      4451      4453      4452      4451      4454      4453      4451      4454
      4451      4454      4455      4451      4454      4456      4451      4454      4457
      4455      4454      4456      4455      4454      4457      4456      4454      4457
      4454      4457      4458      4454      4457      4459      4454      4457      4460
      4458      4457      4459      4458      4457      4460      4459      4457      4460
      4457      4460      4461      4457      4460      4462      4457      4460      4463
      4461      4460      4462      4461      4460      4463      4462      4460      4463
      4460      4463      4464      4460      4463      4465      4460      4463      4466
      4464      4463      4465      4464      4463      4466      4465      4463      4466
      4417      4467      4468      4417      4467      4469      4417      4467      4470
      4468      4467      4469      4468      4467      4470      4469      4467      4470
      4467      4470      4471      4467      4470      4472      4467      4470      4473
      4471      4470      4472      4471      4470      4473      4472      4470      4473
      4470      4473      4474      4470      4473      4475      4470      4473      4476
      4474      4473      4475      4474      4473      4476      4475      4473      4476
      4473      4476      4477      4473      4476      4478      4473      4476      4479
      4477      4476      4478      4477      4476      4479      4478      4476      4479
      4476      4479      4480      4476      4479      4481      4476      4479      4482
      4480      4479      4481      4480      4479      4482      4481      4479      4482
      4479      4482      4483      4479      4482      4484      4479      4482      4485
      4483      4482      4484      4483      4482      4485      4484      4482      4485
      4482      4485      4486      4482      4485      4487      4482      4485      4488
      4486      4485      4487      4486      4485      4488      4487      4485      4488
      4485      4488      4489      4485      4488      4490      4485      4488      4491
      4489      4488      4490      4489      4488      4491      4490      4488      4491
      4488      4491      4492      4488      4491      4493      4488      4491      4494
      4492      4491      4493      4492      4491      4494      4493      4491      4494
      4491      4494      4495      4491      4494      4496      4491      4494      4497
      4495      4494      4496      4495      4494      4497      4496      4494      4497
      4494      4497      4498      4494      4497      4499      4494      4497      4500
      4498      4497      4499      4498      4497      4500      4499      4497      4500
      4497      4500      4501      4497      4500      4502      4497      4500      4503
      4501      4500      4502      4501      4500      4503      4502      4500      4503
      4500      4503      4504      4500      4503      4505      4500      4503      4506
      4504      4503      4505      4504      4503      4506      4505      4503      4506
      4503      4506      4507      4503      4506      4508      4503      4506      4509
      4507      4506      4508      4507      4506      4509      4508      4506      4509
      4511      4510      4514      4511      4510      4518      4511      4510      4522
      4514      4510      4518      4514      4510      4522      4518      4510      4522
      4510      4511      4512      4510      4511      4513      4510      4511      4526
      4512      4511      4513      4512      4511      4526      4513      4511      4526
      4510      4514      4515      4510      4514      4516      4510      4514      4517
      4515      4514      4516      4515      4514      4517      4516      4514      4517
      4510      4518      4519      4510      4518      4520      4510      4518      4521
      4519      4518      4520      4519      4518      4521      4520      4518      4521
      4510      4522      4523      4510      4522      4524      4510      4522      4525
      4523      4522      4524      4523      4522      4525      4524      4522      4525
      4511      4526      4527      4511      4526      4528      4511      4526      4532
      4527      4526      4528      4527      4526      4532      4528      4526      4532
      4530      4529      4531      4530      4529      4532      4530      4529      4533
      4531      4529      4532      4531      4529      4533      4532      4529      4533
      4526      4532      4529      4529      4533      4534      4533      4534      4535
      4533      4534      4536      4533      4534      4537      4535      4534      4536
      4535      4534      4537      4536      4534      4537      4534      4537      4538
      4534      4537      4539      4534      4537      4545      4538      4537      4539
      4538      4537      4545      4539      4537      4545      4537      4539      4540
      4539      4540      4541      4539      4540      4542      4541      4540      4542
      4540      4542      4543      4540      4542      4544      4540      4542      4554
      4543      4542      4544      4543      4542      4554      4544      4542      4554
      4537      4545      4546      4537      4545      4547      4537      4545      4548
      4546      4545      4547      4546      4545      4548      4547      4545      4548
      4545      4548      4549      4548      4549      4550      4548      4549      4551
      4550      4549      4551      4549      4551      4552      4549      4551      4553
      4549      4551      4601      4552      4551      4553      4552      4551      4601
      4553      4551      4601      4542      4554      4555      4542      4554      4556
      4542      4554      4557      4555      4554      4556      4555      4554      4557
      4556      4554      4557      4554      4557      4558      4554      4557      4559
      4554      4557      4560      4558      4557      4559      4558      4557      4560
      4559      4557      4560      4557      4560      4561      4557      4560      4562
      4557      4560      4563      4561      4560      4562      4561      4560      4563
      4562      4560      4563      4560      4563      4564      4560      4563      4565
      4560      4563      4566      4564      4563      4565      4564      4563      4566
      4565      4563      4566      4563      4566      4567      4563      4566      4568
      4563      4566      4569      4567      4566      4568      4567      4566      4569
      4568      4566      4569      4566      4569      4570      4566      4569      4571
      4566      4569      4572      4570      4569      4571      4570      4569      4572
      4571      4569      4572      4569      4572      4573      4569      4572      4574
      4573      4572      4574      4572      4574      4575      4572      4574      4576
      4575      4574      4576      4574      4576      4577      4574      4576      4578
      4574      4576      4579      4577      4576      4578      4577      4576      4579
      4578      4576      4579      4576      4579      4580      4576      4579      4581
      4576      4579      4582      4580      4579      4581      4580      4579      4582
      4581      4579      4582      4579      4582      4583      4579      4582      4584
      4579      4582      4585      4583      4582      4584      4583      4582      4585
      4584      4582      4585      4582      4585      4586      4582      4585      4587
      4582      4585      4588      4586      4585      4587      4586      4585      4588
      4587      4585      4588      4585      4588      4589      4585      4588      4590
      4585      4588      4591      4589      4588      4590      4589      4588      4591
      4590      4588      4591      4588      4591      4592      4588      4591      4593
      4588      4591      4594      4592      4591      4593      4592      4591      4594
      4593      4591      4594      4591      4594      4595      4591      4594      4596
      4591      4594      4597      4595      4594      4596      4595      4594      4597
      4596      4594      4597      4594      4597      4598      4594      4597      4599
      4594      4597      4600      4598      4597      4599      4598      4597      4600
      4599      4597      4600      4551      4601      4602      4551      4601      4603
      4551      4601      4604      4602      4601      4603      4602      4601      4604
      4603      4601      4604      4601      4604      4605      4601      4604      4606
      4601      4604      4607      4605      4604      4606      4605      4604      4607
      4606      4604      4607      4604      4607      4608      4604      4607      4609
      4604      4607      4610      4608      4607      4609      4608      4607      4610
      4609      4607      4610      4607      4610      4611      4607      4610      4612
      4607      4610      4613      4611      4610      4612      4611      4610      4613
      4612      4610      4613      4610      4613      4614      4610      4613      4615
      4610      4613      4616      4614      4613      4615      4614      4613      4616
      4615      4613      4616      4613      4616      4617      4613      4616      4618
      4613      4616      4619      4617      4616      4618      4617      4616      4619
      4618      4616      4619      4616      4619      4620      4616      4619      4621
      4616      4619      4622      4620      4619      4621      4620      4619      4622
      4621      4619      4622      4619      4622      4623      4619      4622      4624
      4619      4622      4625      4623      4622      4624      4623      4622      4625
      4624      4622      4625      4622      4625      4626      4622      4625      4627
      4622      4625      4628      4626      4625      4627      4626      4625      4628
      4627      4625      4628      4625      4628      4629      4625      4628      4630
      4625      4628      4631      4629      4628      4630      4629      4628      4631
      4630      4628      4631      4628      4631      4632      4628      4631      4633
      4628      4631      4634      4632      4631      4633      4632      4631      4634
      4633      4631      4634      4631      4634      4635      4631      4634      4636
      4631      4634      4637      4635      4634      4636      4635      4634      4637
      4636      4634      4637      4634      4637      4638      4634      4637      4639
      4634      4637      4640      4638      4637      4639      4638      4637      4640
      4639      4637      4640      4637      4640      4641      4637      4640      4642
      4637      4640      4643      4641      4640      4642      4641      4640      4643
      4642      4640      4643      4645      4644      4646      4645      4644      4647
      4645      4644      4648      4646      4644      4647      4646      4644      4648
      4647      4644      4648      4644      4648      4649      4644      4648      4650
      4644      4648      4653      4649      4648      4650      4649      4648      4653
      4650      4648      4653      4648      4650      4651      4648      4650      4652
      4651      4650      4652      4648      4653      4654      4648      4653      4655
      4648      4653      4659      4654      4653      4655      4654      4653      4659
      4655      4653      4659      4657      4656      4658      4657      4656      4659
      4657      4656      4660      4658      4656      4659      4658      4656      4660
      4659      4656      4660      4653      4659      4656      4656      4660      4661
      4660      4661      4662      4660      4661      4663      4660      4661      4664
      4662      4661      4663      4662      4661      4664      4663      4661      4664
      4661      4664      4665      4661      4664      4666      4661      4664      4672
      4665      4664      4666      4665      4664      4672      4666      4664      4672
      4664      4666      4667      4666      4667      4668      4666      4667      4669
      4668      4667      4669      4667      4669      4670      4667      4669      4671
      4667      4669      4681      4670      4669      4671      4670      4669      4681
      4671      4669      4681      4664      4672      4673      4664      4672      4674
      4664      4672      4675      4673      4672      4674      4673      4672      4675
      4674      4672      4675      4672      4675      4676      4675      4676      4677
      4675      4676      4678      4677      4676      4678      4676      4678      4679
      4676      4678      4680      4676      4678      4728      4679      4678      4680
      4679      4678      4728      4680      4678      4728      4669      4681      4682
      4669      4681      4683      4669      4681      4684      4682      4681      4683
      4682      4681      4684      4683      4681      4684      4681      4684      4685
      4681      4684      4686      4681      4684      4687      4685      4684      4686
      4685      4684      4687      4686      4684      4687      4684      4687      4688
      4684      4687      4689      4684      4687      4690      4688      4687      4689
      4688      4687      4690      4689      4687      4690      4687      4690      4691
      4687      4690      4692      4687      4690      4693      4691      4690      4692
      4691      4690      4693      4692      4690      4693      4690      4693      4694
      4690      4693      4695      4690      4693      4696      4694      4693      4695
      4694      4693      4696      4695      4693      4696      4693      4696      4697
      4693      4696      4698      4693      4696      4699      4697      4696      4698
      4697      4696      4699      4698      4696      4699      4696      4699      4700
      4696      4699      4701      4700      4699      4701      4699      4701      4702
      4699      4701      4703      4702      4701      4703      4701      4703      4704
      4701      4703      4705      4701      4703      4706      4704      4703      4705
      4704      4703      4706      4705      4703      4706      4703      4706      4707
      4703      4706      4708      4703      4706      4709      4707      4706      4708
      4707      4706      4709      4708      4706      4709      4706      4709      4710
      4706      4709      4711      4706      4709      4712      4710      4709      4711
      4710      4709      4712      4711      4709      4712      4709      4712      4713
      4709      4712      4714      4709      4712      4715      4713      4712      4714
      4713      4712      4715      4714      4712      4715      4712      4715      4716
      4712      4715      4717      4712      4715      4718      4716      4715      4717
      4716      4715      4718      4717      4715      4718      4715      4718      4719
      4715      4718      4720      4715      4718      4721      4719      4718      4720
      4719      4718      4721      4720      4718      4721      4718      4721      4722
      4718      4721      4723      4718      4721      4724      4722      4721      4723
      4722      4721      4724      4723      4721      4724      4721      4724      4725
      4721      4724      4726      4721      4724      4727      4725      4724      4726
      4725      4724      4727      4726      4724      4727      4678      4728      4729
      4678      4728      4730      4678      4728      4731      4729      4728      4730
      4729      4728      4731      4730      4728      4731      4728      4731      4732
      4728      4731      4733      4728      4731      4734      4732      4731      4733
      4732      4731      4734      4733      4731      4734      4731      4734      4735
      4731      4734      4736      4731      4734      4737      4735      4734      4736
      4735      4734      4737      4736      4734      4737      4734      4737      4738
      4734      4737      4739      4734      4737      4740      4738      4737      4739
      4738      4737      4740      4739      4737      4740      4737      4740      4741
      4737      4740      4742      4737      4740      4743      4741      4740      4742
      4741      4740      4743      4742      4740      4743      4740      4743      4744
      4740      4743      4745      4740      4743      4746      4744      4743      4745
      4744      4743      4746      4745      4743      4746      4743      4746      4747
      4743      4746      4748      4743      4746      4749      4747      4746      4748
      4747      4746      4749      4748      4746      4749      4746      4749      4750
      4746      4749      4751      4746      4749      4752      4750      4749      4751
      4750      4749      4752      4751      4749      4752      4749      4752      4753
      4749      4752      4754      4749      4752      4755      4753      4752      4754
      4753      4752      4755      4754      4752      4755      4752      4755      4756
      4752      4755      4757      4752      4755      4758      4756      4755      4757
      4756      4755      4758      4757      4755      4758      4755      4758      4759
      4755      4758      4760      4755      4758      4761      4759      4758      4760
      4759      4758      4761      4760      4758      4761      4758      4761      4762
      4758      4761      4763      4758      4761      4764      4762      4761      4763
      4762      4761      4764      4763      4761      4764      4761      4764      4765
      4761      4764      4766      4761      4764      4767      4765      4764      4766
      4765      4764      4767      4766      4764      4767      4764      4767      4768
      4764      4767      4769      4764      4767      4770      4768      4767      4769
      4768      4767      4770      4769      4767      4770      4772      4771      4775
      4772      4771      4779      4772      4771      4783      4775      4771      4779
      4775      4771      4783      4779      4771      4783      4771      4772      4773
      4771      4772      4774      4771      4772      4787      4773      4772      4774
      4773      4772      4787      4774      4772      4787      4771      4775      4776
      4771      4775      4777      4771      4775      4778      4776      4775      4777
      4776      4775      4778      4777      4775      4778      4771      4779      4780
      4771      4779      4781      4771      4779      4782      4780      4779      4781
      4780      4779      4782      4781      4779      4782      4771      4783      4784
      4771      4783      4785      4771      4783      4786      4784      4783      4785
      4784      4783      4786      4785      4783      4786      4772      4787      4788
      4772      4787      4789      4772      4787      4793      4788      4787      4789
      4788      4787      4793      4789      4787      4793      4791      4790      4792
      4791      4790      4793      4791      4790      4794      4792      4790      4793
      4792      4790      4794      4793      4790      4794      4787      4793      4790
      4790      4794      4795      4794      4795      4796      4794      4795      4797
      4794      4795      4798      4796      4795      4797      4796      4795      4798
      4797      4795      4798      4795      4798      4799      4795      4798      4800
      4795      4798      4806      4799      4798      4800      4799      4798      4806
      4800      4798      4806      4798      4800      4801      4800      4801      4802
      4800      4801      4803      4802      4801      4803      4801      4803      4804
      4801      4803      4805      4801      4803      4815      4804      4803      4805
      4804      4803      4815      4805      4803      4815      4798      4806      4807
      4798      4806      4808      4798      4806      4809      4807      4806      4808
      4807      4806      4809      4808      4806      4809      4806      4809      4810
      4809      4810      4811      4809      4810      4812      4811      4810      4812
      4810      4812      4813      4810      4812      4814      4810      4812      4862
      4813      4812      4814      4813      4812      4862      4814      4812      4862
      4803      4815      4816      4803      4815      4817      4803      4815      4818
      4816      4815      4817      4816      4815      4818      4817      4815      4818
      4815      4818      4819      4815      4818      4820      4815      4818      4821
      4819      4818      4820      4819      4818      4821      4820      4818      4821
      4818      4821      4822      4818      4821      4823      4818      4821      4824
      4822      4821      4823      4822      4821      4824      4823      4821      4824
      4821      4824      4825      4821      4824      4826      4821      4824      4827
      4825      4824      4826      4825      4824      4827      4826      4824      4827
      4824      4827      4828      4824      4827      4829      4824      4827      4830
      4828      4827      4829      4828      4827      4830      4829      4827      4830
      4827      4830      4831      4827      4830      4832      4827      4830      4833
      4831      4830      4832      4831      4830      4833      4832      4830      4833
      4830      4833      4834      4830      4833      4835      4834      4833      4835
      4833      4835      4836      4833      4835      4837      4836      4835      4837
      4835      4837      4838      4835      4837      4839      4835      4837      4840
      4838      4837      4839      4838      4837      4840      4839      4837      4840
      4837      4840      4841      4837      4840      4842      4837      4840      4843
      4841      4840      4842      4841      4840      4843      4842      4840      4843
      4840      4843      4844      4840      4843      4845      4840      4843      4846
      4844      4843      4845      4844      4843      4846      4845      4843      4846
      4843      4846      4847      4843      4846      4848      4843      4846      4849
      4847      4846      4848      4847      4846      4849      4848      4846      4849
      4846      4849      4850      4846      4849      4851      4846      4849      4852
      4850      4849      4851      4850      4849      4852      4851      4849      4852
      4849      4852      4853      4849      4852      4854      4849      4852      4855
      4853      4852      4854      4853      4852      4855      4854      4852      4855
      4852      4855      4856      4852      4855      4857      4852      4855      4858
      4856      4855      4857      4856      4855      4858      4857      4855      4858
      4855      4858      4859      4855      4858      4860      4855      4858      4861
      4859      4858      4860      4859      4858      4861      4860      4858      4861
      4812      4862      4863      4812      4862      4864      4812      4862      4865
      4863      4862      4864      4863      4862      4865      4864      4862      4865
      4862      4865      4866      4862      4865      4867      4862      4865      4868
      4866      4865      4867      4866      4865      4868      4867      4865      4868
      4865      4868      4869      4865      4868      4870      4865      4868      4871
      4869      4868      4870      4869      4868      4871      4870      4868      4871
      4868      4871      4872      4868      4871      4873      4868      4871      4874
      4872      4871      4873      4872      4871      4874      4873      4871      4874
      4871      4874      4875      4871      4874      4876      4871      4874      4877
      4875      4874      4876      4875      4874      4877      4876      4874      4877
      4874      4877      4878      4874      4877      4879      4874      4877      4880
      4878      4877      4879      4878      4877      4880      4879      4877      4880
      4877      4880      4881      4877      4880      4882      4877      4880      4883
      4881      4880      4882      4881      4880      4883      4882      4880      4883
      4880      4883      4884      4880      4883      4885      4880      4883      4886
      4884      4883      4885      4884      4883      4886      4885      4883      4886
      4883      4886      4887      4883      4886      4888      4883      4886      4889
      4887      4886      4888      4887      4886      4889      4888      4886      4889
      4886      4889      4890      4886      4889      4891      4886      4889      4892
      4890      4889      4891      4890      4889      4892      4891      4889      4892
      4889      4892      4893      4889      4892      4894      4889      4892      4895
      4893      4892      4894      4893      4892      4895      4894      4892      4895
      4892      4895      4896      4892      4895      4897      4892      4895      4898
      4896      4895      4897      4896      4895      4898      4897      4895      4898
      4895      4898      4899      4895      4898      4900      4895      4898      4901
      4899      4898      4900      4899      4898      4901      4900      4898      4901
      4898      4901      4902      4898      4901      4903      4898      4901      4904
      4902      4901      4903      4902      4901      4904      4903      4901      4904
      4906      4905      4909      4906      4905      4913      4906      4905      4917
      4909      4905      4913      4909      4905      4917      4913      4905      4917
      4905      4906      4907      4905      4906      4908      4905      4906      4921
      4907      4906      4908      4907      4906      4921      4908      4906      4921
      4905      4909      4910      4905      4909      4911      4905      4909      4912
      4910      4909      4911      4910      4909      4912      4911      4909      4912
      4905      4913      4914      4905      4913      4915      4905      4913      4916
      4914      4913      4915      4914      4913      4916      4915      4913      4916
      4905      4917      4918      4905      4917      4919      4905      4917      4920
      4918      4917      4919      4918      4917      4920      4919      4917      4920
      4906      4921      4922      4906      4921      4923      4906      4921      4927
      4922      4921      4923      4922      4921      4927      4923      4921      4927
      4925      4924      4926      4925      4924      4927      4925      4924      4928
      4926      4924      4927      4926      4924      4928      4927      4924      4928
      4921      4927      4924      4924      4928      4929      4928      4929      4930
      4928      4929      4931      4928      4929      4932      4930      4929      4931
      4930      4929      4932      4931      4929      4932      4929      4932      4933
      4929      4932      4934      4929      4932      4940      4933      4932      4934
      4933      4932      4940      4934      4932      4940      4932      4934      4935
      4934      4935      4936      4934      4935      4937      4936      4935      4937
      4935      4937      4938      4935      4937      4939      4935      4937      4949
      4938      4937      4939      4938      4937      4949      4939      4937      4949
      4932      4940      4941      4932      4940      4942      4932      4940      4943
      4941      4940      4942      4941      4940      4943      4942      4940      4943
      4940      4943      4944      4943      4944      4945      4943      4944      4946
      4945      4944      4946      4944      4946      4947      4944      4946      4948
      4944      4946      4996      4947      4946      4948      4947      4946      4996
      4948      4946      4996      4937      4949      4950      4937      4949      4951
      4937      4949      4952      4950      4949      4951      4950      4949      4952
      4951      4949      4952      4949      4952      4953      4949      4952      4954
      4949      4952      4955      4953      4952      4954      4953      4952      4955
      4954      4952      4955      4952      4955      4956      4952      4955      4957
      4952      4955      4958      4956      4955      4957      4956      4955      4958
      4957      4955      4958      4955      4958      4959      4955      4958      4960
      4955      4958      4961      4959      4958      4960      4959      4958      4961
      4960      4958      4961      4958      4961      4962      4958      4961      4963
      4958      4961      4964      4962      4961      4963      4962      4961      4964
      4963      4961      4964      4961      4964      4965      4961      4964      4966
      4961      4964      4967      4965      4964      4966      4965      4964      4967
      4966      4964      4967      4964      4967      4968      4964      4967      4969
      4968      4967      4969      4967      4969      4970      4967      4969      4971
      4970      4969      4971      4969      4971      4972      4969      4971      4973
      4969      4971      4974      4972      4971      4973      4972      4971      4974
      4973      4971      4974      4971      4974      4975      4971      4974      4976
      4971      4974      4977      4975      4974      4976      4975      4974      4977
      4976      4974      4977      4974      4977      4978      4974      4977      4979
      4974      4977      4980      4978      4977      4979      4978      4977      4980
      4979      4977      4980      4977      4980      4981      4977      4980      4982
      4977      4980      4983      4981      4980      4982      4981      4980      4983
      4982      4980      4983      4980      4983      4984      4980      4983      4985
      4980      4983      4986      4984      4983      4985      4984      4983      4986
      4985      4983      4986      4983      4986      4987      4983      4986      4988
      4983      4986      4989      4987      4986      4988      4987      4986      4989
      4988      4986      4989      4986      4989      4990      4986      4989      4991
      4986      4989      4992      4990      4989      4991      4990      4989      4992
      4991      4989      4992      4989      4992      4993      4989      4992      4994
      4989      4992      4995      4993      4992      4994      4993      4992      4995
      4994      4992      4995      4946      4996      4997      4946      4996      4998
      4946      4996      4999      4997      4996      4998      4997      4996      4999
      4998      4996      4999      4996      4999      5000      4996      4999      5001
      4996      4999      5002      5000      4999      5001      5000      4999      5002
      5001      4999      5002      4999      5002      5003      4999      5002      5004
      4999      5002      5005      5003      5002      5004      5003      5002      5005
      5004      5002      5005      5002      5005      5006      5002      5005      5007
      5002      5005      5008      5006      5005      5007      5006      5005      5008
      5007      5005      5008      5005      5008      5009      5005      5008      5010
      5005      5008      5011      5009      5008      5010      5009      5008      5011
      5010      5008      5011      5008      5011      5012      5008      5011      5013
      5008      5011      5014      5012      5011      5013      5012      5011      5014
      5013      5011      5014      5011      5014      5015      5011      5014      5016
      5011      5014      5017      5015      5014      5016      5015      5014      5017
      5016      5014      5017      5014      5017      5018      5014      5017      5019
      5014      5017      5020      5018      5017      5019      5018      5017      5020
      5019      5017      5020      5017      5020      5021      5017      5020      5022
      5017      5020      5023      5021      5020      5022      5021      5020      5023
      5022      5020      5023      5020      5023      5024      5020      5023      5025
      5020      5023      5026      5024      5023      5025      5024      5023      5026
      5025      5023      5026      5023      5026      5027      5023      5026      5028
      5023      5026      5029      5027      5026      5028      5027      5026      5029
      5028      5026      5029      5026      5029      5030      5026      5029      5031
      5026      5029      5032      5030      5029      5031      5030      5029      5032
      5031      5029      5032      5029      5032      5033      5029      5032      5034
      5029      5032      5035      5033      5032      5034      5033      5032      5035
      5034      5032      5035      5032      5035      5036      5032      5035      5037
      5032      5035      5038      5036      5035      5037      5036      5035      5038
      5037      5035      5038      5040      5039      5043      5040      5039      5047
      5040      5039      5051      5043      5039      5047      5043      5039      5051
      5047      5039      5051      5039      5040      5041      5039      5040      5042
      5039      5040      5055      5041      5040      5042      5041      5040      5055
      5042      5040      5055      5039      5043      5044      5039      5043      5045
      5039      5043      5046      5044      5043      5045      5044      5043      5046
      5045      5043      5046      5039      5047      5048      5039      5047      5049
      5039      5047      5050      5048      5047      5049      5048      5047      5050
      5049      5047      5050      5039      5051      5052      5039      5051      5053
      5039      5051      5054      5052      5051      5053      5052      5051      5054
      5053      5051      5054      5040      5055      5056      5040      5055      5057
      5040      5055      5061      5056      5055      5057      5056      5055      5061
      5057      5055      5061      5059      5058      5060      5059      5058      5061
      5059      5058      5062      5060      5058      5061      5060      5058      5062
      5061      5058      5062      5055      5061      5058      5058      5062      5063
      5062      5063      5064      5062      5063      5065      5062      5063      5066
      5064      5063      5065      5064      5063      5066      5065      5063      5066
      5063      5066      5067      5063      5066      5068      5063      5066      5074
      5067      5066      5068      5067      5066      5074      5068      5066      5074
      5066      5068      5069      5068      5069      5070      5068      5069      5071
      5070      5069      5071      5069      5071      5072      5069      5071      5073
      5069      5071      5083      5072      5071      5073      5072      5071      5083
      5073      5071      5083      5066      5074      5075      5066      5074      5076
      5066      5074      5077      5075      5074      5076      5075      5074      5077
      5076      5074      5077      5074      5077      5078      5077      5078      5079
      5077      5078      5080      5079      5078      5080      5078      5080      5081
      5078      5080      5082      5078      5080      5130      5081      5080      5082
      5081      5080      5130      5082      5080      5130      5071      5083      5084
      5071      5083      5085      5071      5083      5086      5084      5083      5085
      5084      5083      5086      5085      5083      5086      5083      5086      5087
      5083      5086      5088      5083      5086      5089      5087      5086      5088
      5087      5086      5089      5088      5086      5089      5086      5089      5090
      5086      5089      5091      5086      5089      5092      5090      5089      5091
      5090      5089      5092      5091      5089      5092      5089      5092      5093
      5089      5092      5094      5089      5092      5095      5093      5092      5094
      5093      5092      5095      5094      5092      5095      5092      5095      5096
      5092      5095      5097      5092      5095      5098      5096      5095      5097
      5096      5095      5098      5097      5095      5098      5095      5098      5099
      5095      5098      5100      5095      5098      5101      5099      5098      5100
      5099      5098      5101      5100      5098      5101      5098      5101      5102
      5098      5101      5103      5102      5101      5103      5101      5103      5104
      5101      5103      5105      5104      5103      5105      5103      5105      5106
      5103      5105      5107      5103      5105      5108      5106      5105      5107
      5106      5105      5108      5107      5105      5108      5105      5108      5109
      5105      5108      5110      5105      5108      5111      5109      5108      5110
      5109      5108      5111      5110      5108      5111      5108      5111      5112
      5108      5111      5113      5108      5111      5114      5112      5111      5113
      5112      5111      5114      5113      5111      5114      5111      5114      5115
      5111      5114      5116      5111      5114      5117      5115      5114      5116
      5115      5114      5117      5116      5114      5117      5114      5117      5118
      5114      5117      5119      5114      5117      5120      5118      5117      5119
      5118      5117      5120      5119      5117      5120      5117      5120      5121
      5117      5120      5122      5117      5120      5123      5121      5120      5122
      5121      5120      5123      5122      5120      5123      5120      5123      5124
      5120      5123      5125      5120      5123      5126      5124      5123      5125
      5124      5123      5126      5125      5123      5126      5123      5126      5127
      5123      5126      5128      5123      5126      5129      5127      5126      5128
      5127      5126      5129      5128      5126      5129      5080      5130      5131
      5080      5130      5132      5080      5130      5133      5131      5130      5132
      5131      5130      5133      5132      5130      5133      5130      5133      5134
      5130      5133      5135      5130      5133      5136      5134      5133      5135
      5134      5133      5136      5135      5133      5136      5133      5136      5137
      5133      5136      5138      5133      5136      5139      5137      5136      5138
      5137      5136      5139      5138      5136      5139      5136      5139      5140
      5136      5139      5141      5136      5139      5142      5140      5139      5141
      5140      5139      5142      5141      5139      5142      5139      5142      5143
      5139      5142      5144      5139      5142      5145      5143      5142      5144
      5143      5142      5145      5144      5142      5145      5142      5145      5146
      5142      5145      5147      5142      5145      5148      5146      5145      5147
      5146      5145      5148      5147      5145      5148      5145      5148      5149
      5145      5148      5150      5145      5148      5151      5149      5148      5150
      5149      5148      5151      5150      5148      5151      5148      5151      5152
      5148      5151      5153      5148      5151      5154      5152      5151      5153
      5152      5151      5154      5153      5151      5154      5151      5154      5155
      5151      5154      5156      5151      5154      5157      5155      5154      5156
      5155      5154      5157      5156      5154      5157      5154      5157      5158
      5154      5157      5159      5154      5157      5160      5158      5157      5159
      5158      5157      5160      5159      5157      5160      5157      5160      5161
      5157      5160      5162      5157      5160      5163      5161      5160      5162
      5161      5160      5163      5162      5160      5163      5160      5163      5164
      5160      5163      5165      5160      5163      5166      5164      5163      5165
      5164      5163      5166      5165      5163      5166      5163      5166      5167
      5163      5166      5168      5163      5166      5169      5167      5166      5168
      5167      5166      5169      5168      5166      5169      5166      5169      5170
      5166      5169      5171      5166      5169      5172      5170      5169      5171
      5170      5169      5172      5171      5169      5172      5174      5173      5177
      5174      5173      5181      5174      5173      5185      5177      5173      5181
      5177      5173      5185      5181      5173      5185      5173      5174      5175
      5173      5174      5176      5173      5174      5189      5175      5174      5176
      5175      5174      5189      5176      5174      5189      5173      5177      5178
      5173      5177      5179      5173      5177      5180      5178      5177      5179
      5178      5177      5180      5179      5177      5180      5173      5181      5182
      5173      5181      5183      5173      5181      5184      5182      5181      5183
      5182      5181      5184      5183      5181      5184      5173      5185      5186
      5173      5185      5187      5173      5185      5188      5186      5185      5187
      5186      5185      5188      5187      5185      5188      5174      5189      5190
      5174      5189      5191      5174      5189      5195      5190      5189      5191
      5190      5189      5195      5191      5189      5195      5193      5192      5194
      5193      5192      5195      5193      5192      5196      5194      5192      5195
      5194      5192      5196      5195      5192      5196      5189      5195      5192
      5192      5196      5197      5196      5197      5198      5196      5197      5199
      5196      5197      5200      5198      5197      5199      5198      5197      5200
      5199      5197      5200      5197      5200      5201      5197      5200      5202
      5197      5200      5208      5201      5200      5202      5201      5200      5208
      5202      5200      5208      5200      5202      5203      5202      5203      5204
      5202      5203      5205      5204      5203      5205      5203      5205      5206
      5203      5205      5207      5203      5205      5217      5206      5205      5207
      5206      5205      5217      5207      5205      5217      5200      5208      5209
      5200      5208      5210      5200      5208      5211      5209      5208      5210
      5209      5208      5211      5210      5208      5211      5208      5211      5212
      5211      5212      5213      5211      5212      5214      5213      5212      5214
      5212      5214      5215      5212      5214      5216      5212      5214      5264
      5215      5214      5216      5215      5214      5264      5216      5214      5264
      5205      5217      5218      5205      5217      5219      5205      5217      5220
      5218      5217      5219      5218      5217      5220      5219      5217      5220
      5217      5220      5221      5217      5220      5222      5217      5220      5223
      5221      5220      5222      5221      5220      5223      5222      5220      5223
      5220      5223      5224      5220      5223      5225      5220      5223      5226
      5224      5223      5225      5224      5223      5226      5225      5223      5226
      5223      5226      5227      5223      5226      5228      5223      5226      5229
      5227      5226      5228      5227      5226      5229      5228      5226      5229
      5226      5229      5230      5226      5229      5231      5226      5229      5232
      5230      5229      5231      5230      5229      5232      5231      5229      5232
      5229      5232      5233      5229      5232      5234      5229      5232      5235
      5233      5232      5234      5233      5232      5235      5234      5232      5235
      5232      5235      5236      5232      5235      5237      5236      5235      5237
      5235      5237      5238      5235      5237      5239      5238      5237      5239
      5237      5239      5240      5237      5239      5241      5237      5239      5242
      5240      5239      5241      5240      5239      5242      5241      5239      5242
      5239      5242      5243      5239      5242      5244      5239      5242      5245
      5243      5242      5244      5243      5242      5245      5244      5242      5245
      5242      5245      5246      5242      5245      5247      5242      5245      5248
      5246      5245      5247      5246      5245      5248      5247      5245      5248
      5245      5248      5249      5245      5248      5250      5245      5248      5251
      5249      5248      5250      5249      5248      5251      5250      5248      5251
      5248      5251      5252      5248      5251      5253      5248      5251      5254
      5252      5251      5253      5252      5251      5254      5253      5251      5254
      5251      5254      5255      5251      5254      5256      5251      5254      5257
      5255      5254      5256      5255      5254      5257      5256      5254      5257
      5254      5257      5258      5254      5257      5259      5254      5257      5260
      5258      5257      5259      5258      5257      5260      5259      5257      5260
      5257      5260      5261      5257      5260      5262      5257      5260      5263
      5261      5260      5262      5261      5260      5263      5262      5260      5263
      5214      5264      5265      5214      5264      5266      5214      5264      5267
      5265      5264      5266      5265      5264      5267      5266      5264      5267
      5264      5267      5268      5264      5267      5269      5264      5267      5270
      5268      5267      5269      5268      5267      5270      5269      5267      5270
      5267      5270      5271      5267      5270      5272      5267      5270      5273
      5271      5270      5272      5271      5270      5273      5272      5270      5273
      5270      5273      5274      5270      5273      5275      5270      5273      5276
      5274      5273      5275      5274      5273      5276      5275      5273      5276
      5273      5276      5277      5273      5276      5278      5273      5276      5279
      5277      5276      5278      5277      5276      5279      5278      5276      5279
      5276      5279      5280      5276      5279      5281      5276      5279      5282
      5280      5279      5281      5280      5279      5282      5281      5279      5282
      5279      5282      5283      5279      5282      5284      5279      5282      5285
      5283      5282      5284      5283      5282      5285      5284      5282      5285
      5282      5285      5286      5282      5285      5287      5282      5285      5288
      5286      5285      5287      5286      5285      5288      5287      5285      5288
      5285      5288      5289      5285      5288      5290      5285      5288      5291
      5289      5288      5290      5289      5288      5291      5290      5288      5291
      5288      5291      5292      5288      5291      5293      5288      5291      5294
      5292      5291      5293      5292      5291      5294      5293      5291      5294
      5291      5294      5295      5291      5294      5296      5291      5294      5297
      5295      5294      5296      5295      5294      5297      5296      5294      5297
      5294      5297      5298      5294      5297      5299      5294      5297      5300
      5298      5297      5299      5298      5297      5300      5299      5297      5300
      5297      5300      5301      5297      5300      5302      5297      5300      5303
      5301      5300      5302      5301      5300      5303      5302      5300      5303
      5300      5303      5304      5300      5303      5305      5300      5303      5306
      5304      5303      5305      5304      5303      5306      5305      5303      5306
      5308      5307      5311      5308      5307      5315      5308      5307      5319
      5311      5307      5315      5311      5307      5319      5315      5307      5319
      5307      5308      5309      5307      5308      5310      5307      5308      5323
      5309      5308      5310      5309      5308      5323      5310      5308      5323
      5307      5311      5312      5307      5311      5313      5307      5311      5314
      5312      5311      5313      5312      5311      5314      5313      5311      5314
      5307      5315      5316      5307      5315      5317      5307      5315      5318
      5316      5315      5317      5316      5315      5318      5317      5315      5318
      5307      5319      5320      5307      5319      5321      5307      5319      5322
      5320      5319      5321      5320      5319      5322      5321      5319      5322
      5308      5323      5324      5308      5323      5325      5308      5323      5329
      5324      5323      5325      5324      5323      5329      5325      5323      5329
      5327      5326      5328      5327      5326      5329      5327      5326      5330
      5328      5326      5329      5328      5326      5330      5329      5326      5330
      5323      5329      5326      5326      5330      5331      5330      5331      5332
      5330      5331      5333      5330      5331      5334      5332      5331      5333
      5332      5331      5334      5333      5331      5334      5331      5334      5335
      5331      5334      5336      5331      5334      5342      5335      5334      5336
      5335      5334      5342      5336      5334      5342      5334      5336      5337
      5336      5337      5338      5336      5337      5339      5338      5337      5339
      5337      5339      5340      5337      5339      5341      5337      5339      5351
      5340      5339      5341      5340      5339      5351      5341      5339      5351
      5334      5342      5343      5334      5342      5344      5334      5342      5345
      5343      5342      5344      5343      5342      5345      5344      5342      5345
      5342      5345      5346      5345      5346      5347      5345      5346      5348
      5347      5346      5348      5346      5348      5349      5346      5348      5350
      5346      5348      5398      5349      5348      5350      5349      5348      5398
      5350      5348      5398      5339      5351      5352      5339      5351      5353
      5339      5351      5354      5352      5351      5353      5352      5351      5354
      5353      5351      5354      5351      5354      5355      5351      5354      5356
      5351      5354      5357      5355      5354      5356      5355      5354      5357
      5356      5354      5357      5354      5357      5358      5354      5357      5359
      5354      5357      5360      5358      5357      5359      5358      5357      5360
      5359      5357      5360      5357      5360      5361      5357      5360      5362
      5357      5360      5363      5361      5360      5362      5361      5360      5363
      5362      5360      5363      5360      5363      5364      5360      5363      5365
      5360      5363      5366      5364      5363      5365      5364      5363      5366
      5365      5363      5366      5363      5366      5367      5363      5366      5368
      5363      5366      5369      5367      5366      5368      5367      5366      5369
      5368      5366      5369      5366      5369      5370      5366      5369      5371
      5370      5369      5371      5369      5371      5372      5369      5371      5373
      5372      5371      5373      5371      5373      5374      5371      5373      5375
      5371      5373      5376      5374      5373      5375      5374      5373      5376
      5375      5373      5376      5373      5376      5377      5373      5376      5378
      5373      5376      5379      5377      5376      5378      5377      5376      5379
      5378      5376      5379      5376      5379      5380      5376      5379      5381
      5376      5379      5382      5380      5379      5381      5380      5379      5382
      5381      5379      5382      5379      5382      5383      5379      5382      5384
      5379      5382      5385      5383      5382      5384      5383      5382      5385
      5384      5382      5385      5382      5385      5386      5382      5385      5387
      5382      5385      5388      5386      5385      5387      5386      5385      5388
      5387      5385      5388      5385      5388      5389      5385      5388      5390
      5385      5388      5391      5389      5388      5390      5389      5388      5391
      5390      5388      5391      5388      5391      5392      5388      5391      5393
      5388      5391      5394      5392      5391      5393      5392      5391      5394
      5393      5391      5394      5391      5394      5395      5391      5394      5396
      5391      5394      5397      5395      5394      5396      5395      5394      5397
      5396      5394      5397      5348      5398      5399      5348      5398      5400
      5348      5398      5401      5399      5398      5400      5399      5398      5401
      5400      5398      5401      5398      5401      5402      5398      5401      5403
      5398      5401      5404      5402      5401      5403      5402      5401      5404
      5403      5401      5404      5401      5404      5405      5401      5404      5406
      5401      5404      5407      5405      5404      5406      5405      5404      5407
      5406      5404      5407      5404      5407      5408      5404      5407      5409
      5404      5407      5410      5408      5407      5409      5408      5407      5410
      5409      5407      5410      5407      5410      5411      5407      5410      5412
      5407      5410      5413      5411      5410      5412      5411      5410      5413
      5412      5410      5413      5410      5413      5414      5410      5413      5415
      5410      5413      5416      5414      5413      5415      5414      5413      5416
      5415      5413      5416      5413      5416      5417      5413      5416      5418
      5413      5416      5419      5417      5416      5418      5417      5416      5419
      5418      5416      5419      5416      5419      5420      5416      5419      5421
      5416      5419      5422      5420      5419      5421      5420      5419      5422
      5421      5419      5422      5419      5422      5423      5419      5422      5424
      5419      5422      5425      5423      5422      5424      5423      5422      5425
      5424      5422      5425      5422      5425      5426      5422      5425      5427
      5422      5425      5428      5426      5425      5427      5426      5425      5428
      5427      5425      5428      5425      5428      5429      5425      5428      5430
      5425      5428      5431      5429      5428      5430      5429      5428      5431
      5430      5428      5431      5428      5431      5432      5428      5431      5433
      5428      5431      5434      5432      5431      5433      5432      5431      5434
      5433      5431      5434      5431      5434      5435      5431      5434      5436
      5431      5434      5437      5435      5434      5436      5435      5434      5437
      5436      5434      5437      5434      5437      5438      5434      5437      5439
      5434      5437      5440      5438      5437      5439      5438      5437      5440
      5439      5437      5440      5442      5441      5445      5442      5441      5449
      5442      5441      5453      5445      5441      5449      5445      5441      5453
      5449      5441      5453      5441      5442      5443      5441      5442      5444
      5441      5442      5457      5443      5442      5444      5443      5442      5457
      5444      5442      5457      5441      5445      5446      5441      5445      5447
      5441      5445      5448      5446      5445      5447      5446      5445      5448
      5447      5445      5448      5441      5449      5450      5441      5449      5451
      5441      5449      5452      5450      5449      5451      5450      5449      5452
      5451      5449      5452      5441      5453      5454      5441      5453      5455
      5441      5453      5456      5454      5453      5455      5454      5453      5456
      5455      5453      5456      5442      5457      5458      5442      5457      5459
      5442      5457      5463      5458      5457      5459      5458      5457      5463
      5459      5457      5463      5461      5460      5462      5461      5460      5463
      5461      5460      5464      5462      5460      5463      5462      5460      5464
      5463      5460      5464      5457      5463      5460      5460      5464      5465
      5464      5465      5466      5464      5465      5467      5464      5465      5468
      5466      5465      5467      5466      5465      5468      5467      5465      5468
      5465      5468      5469      5465      5468      5470      5465      5468      5476
      5469      5468      5470      5469      5468      5476      5470      5468      5476
      5468      5470      5471      5470      5471      5472      5470      5471      5473
      5472      5471      5473      5471      5473      5474      5471      5473      5475
      5471      5473      5485      5474      5473      5475      5474      5473      5485
      5475      5473      5485      5468      5476      5477      5468      5476      5478
      5468      5476      5479      5477      5476      5478      5477      5476      5479
      5478      5476      5479      5476      5479      5480      5479      5480      5481
      5479      5480      5482      5481      5480      5482      5480      5482      5483
      5480      5482      5484      5480      5482      5532      5483      5482      5484
      5483      5482      5532      5484      5482      5532      5473      5485      5486
      5473      5485      5487      5473      5485      5488      5486      5485      5487
      5486      5485      5488      5487      5485      5488      5485      5488      5489
      5485      5488      5490      5485      5488      5491      5489      5488      5490
      5489      5488      5491      5490      5488      5491      5488      5491      5492
      5488      5491      5493      5488      5491      5494      5492      5491      5493
      5492      5491      5494      5493      5491      5494      5491      5494      5495
      5491      5494      5496      5491      5494      5497      5495      5494      5496
      5495      5494      5497      5496      5494      5497      5494      5497      5498
      5494      5497      5499      5494      5497      5500      5498      5497      5499
      5498      5497      5500      5499      5497      5500      5497      5500      5501
      5497      5500      5502      5497      5500      5503      5501      5500      5502
      5501      5500      5503      5502      5500      5503      5500      5503      5504
      5500      5503      5505      5504      5503      5505      5503      5505      5506
      5503      5505      5507      5506      5505      5507      5505      5507      5508
      5505      5507      5509      5505      5507      5510      5508      5507      5509
      5508      5507      5510      5509      5507      5510      5507      5510      5511
      5507      5510      5512      5507      5510      5513      5511      5510      5512
      5511      5510      5513      5512      5510      5513      5510      5513      5514
      5510      5513      5515      5510      5513      5516      5514      5513      5515
      5514      5513      5516      5515      5513      5516      5513      5516      5517
      5513      5516      5518      5513      5516      5519      5517      5516      5518
      5517      5516      5519      5518      5516      5519      5516      5519      5520
      5516      5519      5521      5516      5519      5522      5520      5519      5521
      5520      5519      5522      5521      5519      5522      5519      5522      5523
      5519      5522      5524      5519      5522      5525      5523      5522      5524
      5523      5522      5525      5524      5522      5525      5522      5525      5526
      5522      5525      5527      5522      5525      5528      5526      5525      5527
      5526      5525      5528      5527      5525      5528      5525      5528      5529
      5525      5528      5530      5525      5528      5531      5529      5528      5530
      5529      5528      5531      5530      5528      5531      5482      5532      5533
      5482      5532      5534      5482      5532      5535      5533      5532      5534
      5533      5532      5535      5534      5532      5535      5532      5535      5536
      5532      5535      5537      5532      5535      5538      5536      5535      5537
      5536      5535      5538      5537      5535      5538      5535      5538      5539
      5535      5538      5540      5535      5538      5541      5539      5538      5540
      5539      5538      5541      5540      5538      5541      5538      5541      5542
      5538      5541      5543      5538      5541      5544      5542      5541      5543
      5542      5541      5544      5543      5541      5544      5541      5544      5545
      5541      5544      5546      5541      5544      5547      5545      5544      5546
      5545      5544      5547      5546      5544      5547      5544      5547      5548
      5544      5547      5549      5544      5547      5550      5548      5547      5549
      5548      5547      5550      5549      5547      5550      5547      5550      5551
      5547      5550      5552      5547      5550      5553      5551      5550      5552
      5551      5550      5553      5552      5550      5553      5550      5553      5554
      5550      5553      5555      5550      5553      5556      5554      5553      5555
      5554      5553      5556      5555      5553      5556      5553      5556      5557
      5553      5556      5558      5553      5556      5559      5557      5556      5558
      5557      5556      5559      5558      5556      5559      5556      5559      5560
      5556      5559      5561      5556      5559      5562      5560      5559      5561
      5560      5559      5562      5561      5559      5562      5559      5562      5563
      5559      5562      5564      5559      5562      5565      5563      5562      5564
      5563      5562      5565      5564      5562      5565      5562      5565      5566
      5562      5565      5567      5562      5565      5568      5566      5565      5567
      5566      5565      5568      5567      5565      5568      5565      5568      5569
      5565      5568      5570      5565      5568      5571      5569      5568      5570
      5569      5568      5571      5570      5568      5571      5568      5571      5572
      5568      5571      5573      5568      5571      5574      5572      5571      5573
      5572      5571      5574      5573      5571      5574      5576      5575      5579
      5576      5575      5583      5576      5575      5587      5579      5575      5583
      5579      5575      5587      5583      5575      5587      5575      5576      5577
      5575      5576      5578      5575      5576      5591      5577      5576      5578
      5577      5576      5591      5578      5576      5591      5575      5579      5580
      5575      5579      5581      5575      5579      5582      5580      5579      5581
      5580      5579      5582      5581      5579      5582      5575      5583      5584
      5575      5583      5585      5575      5583      5586      5584      5583      5585
      5584      5583      5586      5585      5583      5586      5575      5587      5588
      5575      5587      5589      5575      5587      5590      5588      5587      5589
      5588      5587      5590      5589      5587      5590      5576      5591      5592
      5576      5591      5593      5576      5591      5597      5592      5591      5593
      5592      5591      5597      5593      5591      5597      5595      5594      5596
      5595      5594      5597      5595      5594      5598      5596      5594      5597
      5596      5594      5598      5597      5594      5598      5591      5597      5594
      5594      5598      5599      5598      5599      5600      5598      5599      5601
      5598      5599      5602      5600      5599      5601      5600      5599      5602
      5601      5599      5602      5599      5602      5603      5599      5602      5604
      5599      5602      5610      5603      5602      5604      5603      5602      5610
      5604      5602      5610      5602      5604      5605      5604      5605      5606
      5604      5605      5607      5606      5605      5607      5605      5607      5608
      5605      5607      5609      5605      5607      5619      5608      5607      5609
      5608      5607      5619      5609      5607      5619      5602      5610      5611
      5602      5610      5612      5602      5610      5613      5611      5610      5612
      5611      5610      5613      5612      5610      5613      5610      5613      5614
      5613      5614      5615      5613      5614      5616      5615      5614      5616
      5614      5616      5617      5614      5616      5618      5614      5616      5666
      5617      5616      5618      5617      5616      5666      5618      5616      5666
      5607      5619      5620      5607      5619      5621      5607      5619      5622
      5620      5619      5621      5620      5619      5622      5621      5619      5622
      5619      5622      5623      5619      5622      5624      5619      5622      5625
      5623      5622      5624      5623      5622      5625      5624      5622      5625
      5622      5625      5626      5622      5625      5627      5622      5625      5628
      5626      5625      5627      5626      5625      5628      5627      5625      5628
      5625      5628      5629      5625      5628      5630      5625      5628      5631
      5629      5628      5630      5629      5628      5631      5630      5628      5631
      5628      5631      5632      5628      5631      5633      5628      5631      5634
      5632      5631      5633      5632      5631      5634      5633      5631      5634
      5631      5634      5635      5631      5634      5636      5631      5634      5637
      5635      5634      5636      5635      5634      5637      5636      5634      5637
      5634      5637      5638      5634      5637      5639      5638      5637      5639
      5637      5639      5640      5637      5639      5641      5640      5639      5641
      5639      5641      5642      5639      5641      5643      5639      5641      5644
      5642      5641      5643      5642      5641      5644      5643      5641      5644
      5641      5644      5645      5641      5644      5646      5641      5644      5647
      5645      5644      5646      5645      5644      5647      5646      5644      5647
      5644      5647      5648      5644      5647      5649      5644      5647      5650
      5648      5647      5649      5648      5647      5650      5649      5647      5650
      5647      5650      5651      5647      5650      5652      5647      5650      5653
      5651      5650      5652      5651      5650      5653      5652      5650      5653
      5650      5653      5654      5650      5653      5655      5650      5653      5656
      5654      5653      5655      5654      5653      5656      5655      5653      5656
      5653      5656      5657      5653      5656      5658      5653      5656      5659
      5657      5656      5658      5657      5656      5659      5658      5656      5659
      5656      5659      5660      5656      5659      5661      5656      5659      5662
      5660      5659      5661      5660      5659      5662      5661      5659      5662
      5659      5662      5663      5659      5662      5664      5659      5662      5665
      5663      5662      5664      5663      5662      5665      5664      5662      5665
      5616      5666      5667      5616      5666      5668      5616      5666      5669
      5667      5666      5668      5667      5666      5669      5668      5666      5669
      5666      5669      5670      5666      5669      5671      5666      5669      5672
      5670      5669      5671      5670      5669      5672      5671      5669      5672
      5669      5672      5673      5669      5672      5674      5669      5672      5675
      5673      5672      5674      5673      5672      5675      5674      5672      5675
      5672      5675      5676      5672      5675      5677      5672      5675      5678
      5676      5675      5677      5676      5675      5678      5677      5675      5678
      5675      5678      5679      5675      5678      5680      5675      5678      5681
      5679      5678      5680      5679      5678      5681      5680      5678      5681
      5678      5681      5682      5678      5681      5683      5678      5681      5684
      5682      5681      5683      5682      5681      5684      5683      5681      5684
      5681      5684      5685      5681      5684      5686      5681      5684      5687
      5685      5684      5686      5685      5684      5687      5686      5684      5687
      5684      5687      5688      5684      5687      5689      5684      5687      5690
      5688      5687      5689      5688      5687      5690      5689      5687      5690
      5687      5690      5691      5687      5690      5692      5687      5690      5693
      5691      5690      5692      5691      5690      5693      5692      5690      5693
      5690      5693      5694      5690      5693      5695      5690      5693      5696
      5694      5693      5695      5694      5693      5696      5695      5693      5696
      5693      5696      5697      5693      5696      5698      5693      5696      5699
      5697      5696      5698      5697      5696      5699      5698      5696      5699
      5696      5699      5700      5696      5699      5701      5696      5699      5702
      5700      5699      5701      5700      5699      5702      5701      5699      5702
      5699      5702      5703      5699      5702      5704      5699      5702      5705
      5703      5702      5704      5703      5702      5705      5704      5702      5705
      5702      5705      5706      5702      5705      5707      5702      5705      5708
      5706      5705      5707      5706      5705      5708      5707      5705      5708
      5710      5709      5711      5710      5709      5712      5710      5709      5713
      5711      5709      5712      5711      5709      5713      5712      5709      5713
      5709      5713      5714      5709      5713      5715      5709      5713      5718
      5714      5713      5715      5714      5713      5718      5715      5713      5718
      5713      5715      5716      5713      5715      5717      5716      5715      5717
      5713      5718      5719      5713      5718      5720      5713      5718      5724
      5719      5718      5720      5719      5718      5724      5720      5718      5724
      5722      5721      5723      5722      5721      5724      5722      5721      5725
      5723      5721      5724      5723      5721      5725      5724      5721      5725
      5718      5724      5721      5721      5725      5726      5725      5726      5727
      5725      5726      5728      5725      5726      5729      5727      5726      5728
      5727      5726      5729      5728      5726      5729      5726      5729      5730
      5726      5729      5731      5726      5729      5737      5730      5729      5731
      5730      5729      5737      5731      5729      5737      5729      5731      5732
      5731      5732      5733      5731      5732      5734      5733      5732      5734
      5732      5734      5735      5732      5734      5736      5732      5734      5746
      5735      5734      5736      5735      5734      5746      5736      5734      5746
      5729      5737      5738      5729      5737      5739      5729      5737      5740
      5738      5737      5739      5738      5737      5740      5739      5737      5740
      5737      5740      5741      5740      5741      5742      5740      5741      5743
      5742      5741      5743      5741      5743      5744      5741      5743      5745
      5741      5743      5793      5744      5743      5745      5744      5743      5793
      5745      5743      5793      5734      5746      5747      5734      5746      5748
      5734      5746      5749      5747      5746      5748      5747      5746      5749
      5748      5746      5749      5746      5749      5750      5746      5749      5751
      5746      5749      5752      5750      5749      5751      5750      5749      5752
      5751      5749      5752      5749      5752      5753      5749      5752      5754
      5749      5752      5755      5753      5752      5754      5753      5752      5755
      5754      5752      5755      5752      5755      5756      5752      5755      5757
      5752      5755      5758      5756      5755      5757      5756      5755      5758
      5757      5755      5758      5755      5758      5759      5755      5758      5760
      5755      5758      5761      5759      5758      5760      5759      5758      5761
      5760      5758      5761      5758      5761      5762      5758      5761      5763
      5758      5761      5764      5762      5761      5763      5762      5761      5764
      5763      5761      5764      5761      5764      5765      5761      5764      5766
      5765      5764      5766      5764      5766      5767      5764      5766      5768
      5767      5766      5768      5766      5768      5769      5766      5768      5770
      5766      5768      5771      5769      5768      5770      5769      5768      5771
      5770      5768      5771      5768      5771      5772      5768      5771      5773
      5768      5771      5774      5772      5771      5773      5772      5771      5774
      5773      5771      5774      5771      5774      5775      5771      5774      5776
      5771      5774      5777      5775      5774      5776      5775      5774      5777
      5776      5774      5777      5774      5777      5778      5774      5777      5779
      5774      5777      5780      5778      5777      5779      5778      5777      5780
      5779      5777      5780      5777      5780      5781      5777      5780      5782
      5777      5780      5783      5781      5780      5782      5781      5780      5783
      5782      5780      5783      5780      5783      5784      5780      5783      5785
      5780      5783      5786      5784      5783      5785      5784      5783      5786
      5785      5783      5786      5783      5786      5787      5783      5786      5788
      5783      5786      5789      5787      5786      5788      5787      5786      5789
      5788      5786      5789      5786      5789      5790      5786      5789      5791
      5786      5789      5792      5790      5789      5791      5790      5789      5792
      5791      5789      5792      5743      5793      5794      5743      5793      5795
      5743      5793      5796      5794      5793      5795      5794      5793      5796
      5795      5793      5796      5793      5796      5797      5793      5796      5798
      5793      5796      5799      5797      5796      5798      5797      5796      5799
      5798      5796      5799      5796      5799      5800      5796      5799      5801
      5796      5799      5802      5800      5799      5801      5800      5799      5802
      5801      5799      5802      5799      5802      5803      5799      5802      5804
      5799      5802      5805      5803      5802      5804      5803      5802      5805
      5804      5802      5805      5802      5805      5806      5802      5805      5807
      5802      5805      5808      5806      5805      5807      5806      5805      5808
      5807      5805      5808      5805      5808      5809      5805      5808      5810
      5805      5808      5811      5809      5808      5810      5809      5808      5811
      5810      5808      5811      5808      5811      5812      5808      5811      5813
      5808      5811      5814      5812      5811      5813      5812      5811      5814
      5813      5811      5814      5811      5814      5815      5811      5814      5816
      5811      5814      5817      5815      5814      5816      5815      5814      5817
      5816      5814      5817      5814      5817      5818      5814      5817      5819
      5814      5817      5820      5818      5817      5819      5818      5817      5820
      5819      5817      5820      5817      5820      5821      5817      5820      5822
      5817      5820      5823      5821      5820      5822      5821      5820      5823
      5822      5820      5823      5820      5823      5824      5820      5823      5825
      5820      5823      5826      5824      5823      5825      5824      5823      5826
      5825      5823      5826      5823      5826      5827      5823      5826      5828
      5823      5826      5829      5827      5826      5828      5827      5826      5829
      5828      5826      5829      5826      5829      5830      5826      5829      5831
      5826      5829      5832      5830      5829      5831      5830      5829      5832
      5831      5829      5832      5829      5832      5833      5829      5832      5834
      5829      5832      5835      5833      5832      5834      5833      5832      5835
      5834      5832      5835      5837      5836      5840      5837      5836      5844
      5837      5836      5848      5840      5836      5844      5840      5836      5848
      5844      5836      5848      5836      5837      5838      5836      5837      5839
      5836      5837      5852      5838      5837      5839      5838      5837      5852
      5839      5837      5852      5836      5840      5841      5836      5840      5842
      5836      5840      5843      5841      5840      5842      5841      5840      5843
      5842      5840      5843      5836      5844      5845      5836      5844      5846
      5836      5844      5847      5845      5844      5846      5845      5844      5847
      5846      5844      5847      5836      5848      5849      5836      5848      5850
      5836      5848      5851      5849      5848      5850      5849      5848      5851
      5850      5848      5851      5837      5852      5853      5837      5852      5854
      5837      5852      5858      5853      5852      5854      5853      5852      5858
      5854      5852      5858      5856      5855      5857      5856      5855      5858
      5856      5855      5859      5857      5855      5858      5857      5855      5859
      5858      5855      5859      5852      5858      5855      5855      5859      5860
      5859      5860      5861      5859      5860      5862      5859      5860      5863
      5861      5860      5862      5861      5860      5863      5862      5860      5863
      5860      5863      5864      5860      5863      5865      5860      5863      5871
      5864      5863      5865      5864      5863      5871      5865      5863      5871
      5863      5865      5866      5865      5866      5867      5865      5866      5868
      5867      5866      5868      5866      5868      5869      5866      5868      5870
      5866      5868      5880      5869      5868      5870      5869      5868      5880
      5870      5868      5880      5863      5871      5872      5863      5871      5873
      5863      5871      5874      5872      5871      5873      5872      5871      5874
      5873      5871      5874      5871      5874      5875      5874      5875      5876
      5874      5875      5877      5876      5875      5877      5875      5877      5878
      5875      5877      5879      5875      5877      5927      5878      5877      5879
      5878      5877      5927      5879      5877      5927      5868      5880      5881
      5868      5880      5882      5868      5880      5883      5881      5880      5882
      5881      5880      5883      5882      5880      5883      5880      5883      5884
      5880      5883      5885      5880      5883      5886      5884      5883      5885
      5884      5883      5886      5885      5883      5886      5883      5886      5887
      5883      5886      5888      5883      5886      5889      5887      5886      5888
      5887      5886      5889      5888      5886      5889      5886      5889      5890
      5886      5889      5891      5886      5889      5892      5890      5889      5891
      5890      5889      5892      5891      5889      5892      5889      5892      5893
      5889      5892      5894      5889      5892      5895      5893      5892      5894
      5893      5892      5895      5894      5892      5895      5892      5895      5896
      5892      5895      5897      5892      5895      5898      5896      5895      5897
      5896      5895      5898      5897      5895      5898      5895      5898      5899
      5895      5898      5900      5899      5898      5900      5898      5900      5901
      5898      5900      5902      5901      5900      5902      5900      5902      5903
      5900      5902      5904      5900      5902      5905      5903      5902      5904
      5903      5902      5905      5904      5902      5905      5902      5905      5906
      5902      5905      5907      5902      5905      5908      5906      5905      5907
      5906      5905      5908      5907      5905      5908      5905      5908      5909
      5905      5908      5910      5905      5908      5911      5909      5908      5910
      5909      5908      5911      5910      5908      5911      5908      5911      5912
      5908      5911      5913      5908      5911      5914      5912      5911      5913
      5912      5911      5914      5913      5911      5914      5911      5914      5915
      5911      5914      5916      5911      5914      5917      5915      5914      5916
      5915      5914      5917      5916      5914      5917      5914      5917      5918
      5914      5917      5919      5914      5917      5920      5918      5917      5919
      5918      5917      5920      5919      5917      5920      5917      5920      5921
      5917      5920      5922      5917      5920      5923      5921      5920      5922
      5921      5920      5923      5922      5920      5923      5920      5923      5924
      5920      5923      5925      5920      5923      5926      5924      5923      5925
      5924      5923      5926      5925      5923      5926      5877      5927      5928
      5877      5927      5929      5877      5927      5930      5928      5927      5929
      5928      5927      5930      5929      5927      5930      5927      5930      5931
      5927      5930      5932      5927      5930      5933      5931      5930      5932
      5931      5930      5933      5932      5930      5933      5930      5933      5934
      5930      5933      5935      5930      5933      5936      5934      5933      5935
      5934      5933      5936      5935      5933      5936      5933      5936      5937
      5933      5936      5938      5933      5936      5939      5937      5936      5938
      5937      5936      5939      5938      5936      5939      5936      5939      5940
      5936      5939      5941      5936      5939      5942      5940      5939      5941
      5940      5939      5942      5941      5939      5942      5939      5942      5943
      5939      5942      5944      5939      5942      5945      5943      5942      5944
      5943      5942      5945      5944      5942      5945      5942      5945      5946
      5942      5945      5947      5942      5945      5948      5946      5945      5947
      5946      5945      5948      5947      5945      5948      5945      5948      5949
      5945      5948      5950      5945      5948      5951      5949      5948      5950
      5949      5948      5951      5950      5948      5951      5948      5951      5952
      5948      5951      5953      5948      5951      5954      5952      5951      5953
      5952      5951      5954      5953      5951      5954      5951      5954      5955
      5951      5954      5956      5951      5954      5957      5955      5954      5956
      5955      5954      5957      5956      5954      5957      5954      5957      5958
      5954      5957      5959      5954      5957      5960      5958      5957      5959
      5958      5957      5960      5959      5957      5960      5957      5960      5961
      5957      5960      5962      5957      5960      5963      5961      5960      5962
      5961      5960      5963      5962      5960      5963      5960      5963      5964
      5960      5963      5965      5960      5963      5966      5964      5963      5965
      5964      5963      5966      5965      5963      5966      5963      5966      5967
      5963      5966      5968      5963      5966      5969      5967      5966      5968
      5967      5966      5969      5968      5966      5969      5971      5970      5974
      5971      5970      5978      5971      5970      5982      5974      5970      5978
      5974      5970      5982      5978      5970      5982      5970      5971      5972
      5970      5971      5973      5970      5971      5986      5972      5971      5973
      5972      5971      5986      5973      5971      5986      5970      5974      5975
      5970      5974      5976      5970      5974      5977      5975      5974      5976
      5975      5974      5977      5976      5974      5977      5970      5978      5979
      5970      5978      5980      5970      5978      5981      5979      5978      5980
      5979      5978      5981      5980      5978      5981      5970      5982      5983
      5970      5982      5984      5970      5982      5985      5983      5982      5984
      5983      5982      5985      5984      5982      5985      5971      5986      5987
      5971      5986      5988      5971      5986      5992      5987      5986      5988
      5987      5986      5992      5988      5986      5992      5990      5989      5991
      5990      5989      5992      5990      5989      5993      5991      5989      5992
      5991      5989      5993      5992      5989      5993      5986      5992      5989
      5989      5993      5994      5993      5994      5995      5993      5994      5996
      5993      5994      5997      5995      5994      5996      5995      5994      5997
      5996      5994      5997      5994      5997      5998      5994      5997      5999
      5994      5997      6005      5998      5997      5999      5998      5997      6005
      5999      5997      6005      5997      5999      6000      5999      6000      6001
      5999      6000      6002      6001      6000      6002      6000      6002      6003
      6000      6002      6004      6000      6002      6014      6003      6002      6004
      6003      6002      6014      6004      6002      6014      5997      6005      6006
      5997      6005      6007      5997      6005      6008      6006      6005      6007
      6006      6005      6008      6007      6005      6008      6005      6008      6009
      6008      6009      6010      6008      6009      6011      6010      6009      6011
      6009      6011      6012      6009      6011      6013      6009      6011      6061
      6012      6011      6013      6012      6011      6061      6013      6011      6061
      6002      6014      6015      6002      6014      6016      6002      6014      6017
      6015      6014      6016      6015      6014      6017      6016      6014      6017
      6014      6017      6018      6014      6017      6019      6014      6017      6020
      6018      6017      6019      6018      6017      6020      6019      6017      6020
      6017      6020      6021      6017      6020      6022      6017      6020      6023
      6021      6020      6022      6021      6020      6023      6022      6020      6023
      6020      6023      6024      6020      6023      6025      6020      6023      6026
      6024      6023      6025      6024      6023      6026      6025      6023      6026
      6023      6026      6027      6023      6026      6028      6023      6026      6029
      6027      6026      6028      6027      6026      6029      6028      6026      6029
      6026      6029      6030      6026      6029      6031      6026      6029      6032
      6030      6029      6031      6030      6029      6032      6031      6029      6032
      6029      6032      6033      6029      6032      6034      6033      6032      6034
      6032      6034      6035      6032      6034      6036      6035      6034      6036
      6034      6036      6037      6034      6036      6038      6034      6036      6039
      6037      6036      6038      6037      6036      6039      6038      6036      6039
      6036      6039      6040      6036      6039      6041      6036      6039      6042
      6040      6039      6041      6040      6039      6042      6041      6039      6042
      6039      6042      6043      6039      6042      6044      6039      6042      6045
      6043      6042      6044      6043      6042      6045      6044      6042      6045
      6042      6045      6046      6042      6045      6047      6042      6045      6048
      6046      6045      6047      6046      6045      6048      6047      6045      6048
      6045      6048      6049      6045      6048      6050      6045      6048      6051
      6049      6048      6050      6049      6048      6051      6050      6048      6051
      6048      6051      6052      6048      6051      6053      6048      6051      6054
      6052      6051      6053      6052      6051      6054      6053      6051      6054
      6051      6054      6055      6051      6054      6056      6051      6054      6057
      6055      6054      6056      6055      6054      6057      6056      6054      6057
      6054      6057      6058      6054      6057      6059      6054      6057      6060
      6058      6057      6059      6058      6057      6060      6059      6057      6060
      6011      6061      6062      6011      6061      6063      6011      6061      6064
      6062      6061      6063      6062      6061      6064      6063      6061      6064
      6061      6064      6065      6061      6064      6066      6061      6064      6067
      6065      6064      6066      6065      6064      6067      6066      6064      6067
      6064      6067      6068      6064      6067      6069      6064      6067      6070
      6068      6067      6069      6068      6067      6070      6069      6067      6070
      6067      6070      6071      6067      6070      6072      6067      6070      6073
      6071      6070      6072      6071      6070      6073      6072      6070      6073
      6070      6073      6074      6070      6073      6075      6070      6073      6076
      6074      6073      6075      6074      6073      6076      6075      6073      6076
      6073      6076      6077      6073      6076      6078      6073      6076      6079
      6077      6076      6078      6077      6076      6079      6078      6076      6079
      6076      6079      6080      6076      6079      6081      6076      6079      6082
      6080      6079      6081      6080      6079      6082      6081      6079      6082
      6079      6082      6083      6079      6082      6084      6079      6082      6085
      6083      6082      6084      6083      6082      6085      6084      6082      6085
      6082      6085      6086      6082      6085      6087      6082      6085      6088
      6086      6085      6087      6086      6085      6088      6087      6085      6088
      6085      6088      6089      6085      6088      6090      6085      6088      6091
      6089      6088      6090      6089      6088      6091      6090      6088      6091
      6088      6091      6092      6088      6091      6093      6088      6091      6094
      6092      6091      6093      6092      6091      6094      6093      6091      6094
      6091      6094      6095      6091      6094      6096      6091      6094      6097
      6095      6094      6096      6095      6094      6097      6096      6094      6097
      6094      6097      6098      6094      6097      6099      6094      6097      6100
      6098      6097      6099      6098      6097      6100      6099      6097      6100
      6097      6100      6101      6097      6100      6102      6097      6100      6103
      6101      6100      6102      6101      6100      6103      6102      6100      6103
      6105      6104      6106      6105      6104      6107      6105      6104      6108
      6106      6104      6107      6106      6104      6108      6107      6104      6108
      6104      6108      6109      6104      6108      6110      6104      6108      6113
      6109      6108      6110      6109      6108      6113      6110      6108      6113
      6108      6110      6111      6108      6110      6112      6111      6110      6112
      6108      6113      6114      6108      6113      6115      6108      6113      6119
      6114      6113      6115      6114      6113      6119      6115      6113      6119
      6117      6116      6118      6117      6116      6119      6117      6116      6120
      6118      6116      6119      6118      6116      6120      6119      6116      6120
      6113      6119      6116      6116      6120      6121      6120      6121      6122
      6120      6121      6123      6120      6121      6124      6122      6121      6123
      6122      6121      6124      6123      6121      6124      6121      6124      6125
      6121      6124      6126      6121      6124      6132      6125      6124      6126
      6125      6124      6132      6126      6124      6132      6124      6126      6127
      6126      6127      6128      6126      6127      6129      6128      6127      6129
      6127      6129      6130      6127      6129      6131      6127      6129      6141
      6130      6129      6131      6130      6129      6141      6131      6129      6141
      6124      6132      6133      6124      6132      6134      6124      6132      6135
      6133      6132      6134      6133      6132      6135      6134      6132      6135
      6132      6135      6136      6135      6136      6137      6135      6136      6138
      6137      6136      6138      6136      6138      6139      6136      6138      6140
      6136      6138      6188      6139      6138      6140      6139      6138      6188
      6140      6138      6188      6129      6141      6142      6129      6141      6143
      6129      6141      6144      6142      6141      6143      6142      6141      6144
      6143      6141      6144      6141      6144      6145      6141      6144      6146
      6141      6144      6147      6145      6144      6146      6145      6144      6147
      6146      6144      6147      6144      6147      6148      6144      6147      6149
      6144      6147      6150      6148      6147      6149      6148      6147      6150
      6149      6147      6150      6147      6150      6151      6147      6150      6152
      6147      6150      6153      6151      6150      6152      6151      6150      6153
      6152      6150      6153      6150      6153      6154      6150      6153      6155
      6150      6153      6156      6154      6153      6155      6154      6153      6156
      6155      6153      6156      6153      6156      6157      6153      6156      6158
      6153      6156      6159      6157      6156      6158      6157      6156      6159
      6158      6156      6159      6156      6159      6160      6156      6159      6161
      6160      6159      6161      6159      6161      6162      6159      6161      6163
      6162      6161      6163      6161      6163      6164      6161      6163      6165
      6161      6163      6166      6164      6163      6165      6164      6163      6166
      6165      6163      6166      6163      6166      6167      6163      6166      6168
      6163      6166      6169      6167      6166      6168      6167      6166      6169
      6168      6166      6169      6166      6169      6170      6166      6169      6171
      6166      6169      6172      6170      6169      6171      6170      6169      6172
      6171      6169      6172      6169      6172      6173      6169      6172      6174
      6169      6172      6175      6173      6172      6174      6173      6172      6175
      6174      6172      6175      6172      6175      6176      6172      6175      6177
      6172      6175      6178      6176      6175      6177      6176      6175      6178
      6177      6175      6178      6175      6178      6179      6175      6178      6180
      6175      6178      6181      6179      6178      6180      6179      6178      6181
      6180      6178      6181      6178      6181      6182      6178      6181      6183
      6178      6181      6184      6182      6181      6183      6182      6181      6184
      6183      6181      6184      6181      6184      6185      6181      6184      6186
      6181      6184      6187      6185      6184      6186      6185      6184      6187
      6186      6184      6187      6138      6188      6189      6138      6188      6190
      6138      6188      6191      6189      6188      6190      6189      6188      6191
      6190      6188      6191      6188      6191      6192      6188      6191      6193
      6188      6191      6194      6192      6191      6193      6192      6191      6194
      6193      6191      6194      6191      6194      6195      6191      6194      6196
      6191      6194      6197      6195      6194      6196      6195      6194      6197
      6196      6194      6197      6194      6197      6198      6194      6197      6199
      6194      6197      6200      6198      6197      6199      6198      6197      6200
      6199      6197      6200      6197      6200      6201      6197      6200      6202
      6197      6200      6203      6201      6200      6202      6201      6200      6203
      6202      6200      6203      6200      6203      6204      6200      6203      6205
      6200      6203      6206      6204      6203      6205      6204      6203      6206
      6205      6203      6206      6203      6206      6207      6203      6206      6208
      6203      6206      6209      6207      6206      6208      6207      6206      6209
      6208      6206      6209      6206      6209      6210      6206      6209      6211
      6206      6209      6212      6210      6209      6211      6210      6209      6212
      6211      6209      6212      6209      6212      6213      6209      6212      6214
      6209      6212      6215      6213      6212      6214      6213      6212      6215
      6214      6212      6215      6212      6215      6216      6212      6215      6217
      6212      6215      6218      6216      6215      6217      6216      6215      6218
      6217      6215      6218      6215      6218      6219      6215      6218      6220
      6215      6218      6221      6219      6218      6220      6219      6218      6221
      6220      6218      6221      6218      6221      6222      6218      6221      6223
      6218      6221      6224      6222      6221      6223      6222      6221      6224
      6223      6221      6224      6221      6224      6225      6221      6224      6226
      6221      6224      6227      6225      6224      6226      6225      6224      6227
      6226      6224      6227      6224      6227      6228      6224      6227      6229
      6224      6227      6230      6228      6227      6229      6228      6227      6230
      6229      6227      6230      6232      6231      6235      6232      6231      6239
      6232      6231      6243      6235      6231      6239      6235      6231      6243
      6239      6231      6243      6231      6232      6233      6231      6232      6234
      6231      6232      6247      6233      6232      6234      6233      6232      6247
      6234      6232      6247      6231      6235      6236      6231      6235      6237
      6231      6235      6238      6236      6235      6237      6236      6235      6238
      6237      6235      6238      6231      6239      6240      6231      6239      6241
      6231      6239      6242      6240      6239      6241      6240      6239      6242
      6241      6239      6242      6231      6243      6244      6231      6243      6245
      6231      6243      6246      6244      6243      6245      6244      6243      6246
      6245      6243      6246      6232      6247      6248      6232      6247      6249
      6232      6247      6253      6248      6247      6249      6248      6247      6253
      6249      6247      6253      6251      6250      6252      6251      6250      6253
      6251      6250      6254      6252      6250      6253      6252      6250      6254
      6253      6250      6254      6247      6253      6250      6250      6254      6255
      6254      6255      6256      6254      6255      6257      6254      6255      6258
      6256      6255      6257      6256      6255      6258      6257      6255      6258
      6255      6258      6259      6255      6258      6260      6255      6258      6266
      6259      6258      6260      6259      6258      6266      6260      6258      6266
      6258      6260      6261      6260      6261      6262      6260      6261      6263
      6262      6261      6263      6261      6263      6264      6261      6263      6265
      6261      6263      6275      6264      6263      6265      6264      6263      6275
      6265      6263      6275      6258      6266      6267      6258      6266      6268
      6258      6266      6269      6267      6266      6268      6267      6266      6269
      6268      6266      6269      6266      6269      6270      6269      6270      6271
      6269      6270      6272      6271      6270      6272      6270      6272      6273
      6270      6272      6274      6270      6272      6322      6273      6272      6274
      6273      6272      6322      6274      6272      6322      6263      6275      6276
      6263      6275      6277      6263      6275      6278      6276      6275      6277
      6276      6275      6278      6277      6275      6278      6275      6278      6279
      6275      6278      6280      6275      6278      6281      6279      6278      6280
      6279      6278      6281      6280      6278      6281      6278      6281      6282
      6278      6281      6283      6278      6281      6284      6282      6281      6283
      6282      6281      6284      6283      6281      6284      6281      6284      6285
      6281      6284      6286      6281      6284      6287      6285      6284      6286
      6285      6284      6287      6286      6284      6287      6284      6287      6288
      6284      6287      6289      6284      6287      6290      6288      6287      6289
      6288      6287      6290      6289      6287      6290      6287      6290      6291
      6287      6290      6292      6287      6290      6293      6291      6290      6292
      6291      6290      6293      6292      6290      6293      6290      6293      6294
      6290      6293      6295      6294      6293      6295      6293      6295      6296
      6293      6295      6297      6296      6295      6297      6295      6297      6298
      6295      6297      6299      6295      6297      6300      6298      6297      6299
      6298      6297      6300      6299      6297      6300      6297      6300      6301
      6297      6300      6302      6297      6300      6303      6301      6300      6302
      6301      6300      6303      6302      6300      6303      6300      6303      6304
      6300      6303      6305      6300      6303      6306      6304      6303      6305
      6304      6303      6306      6305      6303      6306      6303      6306      6307
      6303      6306      6308      6303      6306      6309      6307      6306      6308
      6307      6306      6309      6308      6306      6309      6306      6309      6310
      6306      6309      6311      6306      6309      6312      6310      6309      6311
      6310      6309      6312      6311      6309      6312      6309      6312      6313
      6309      6312      6314      6309      6312      6315      6313      6312      6314
      6313      6312      6315      6314      6312      6315      6312      6315      6316
      6312      6315      6317      6312      6315      6318      6316      6315      6317
      6316      6315      6318      6317      6315      6318      6315      6318      6319
      6315      6318      6320      6315      6318      6321      6319      6318      6320
      6319      6318      6321      6320      6318      6321      6272      6322      6323
      6272      6322      6324      6272      6322      6325      6323      6322      6324
      6323      6322      6325      6324      6322      6325      6322      6325      6326
      6322      6325      6327      6322      6325      6328      6326      6325      6327
      6326      6325      6328      6327      6325      6328      6325      6328      6329
      6325      6328      6330      6325      6328      6331      6329      6328      6330
      6329      6328      6331      6330      6328      6331      6328      6331      6332
      6328      6331      6333      6328      6331      6334      6332      6331      6333
      6332      6331      6334      6333      6331      6334      6331      6334      6335
      6331      6334      6336      6331      6334      6337      6335      6334      6336
      6335      6334      6337      6336      6334      6337      6334      6337      6338
      6334      6337      6339      6334      6337      6340      6338      6337      6339
      6338      6337      6340      6339      6337      6340      6337      6340      6341
      6337      6340      6342      6337      6340      6343      6341      6340      6342
      6341      6340      6343      6342      6340      6343      6340      6343      6344
      6340      6343      6345      6340      6343      6346      6344      6343      6345
      6344      6343      6346      6345      6343      6346      6343      6346      6347
      6343      6346      6348      6343      6346      6349      6347      6346      6348
      6347      6346      6349      6348      6346      6349      6346      6349      6350
      6346      6349      6351      6346      6349      6352      6350      6349      6351
      6350      6349      6352      6351      6349      6352      6349      6352      6353
      6349      6352      6354      6349      6352      6355      6353      6352      6354
      6353      6352      6355      6354      6352      6355      6352      6355      6356
      6352      6355      6357      6352      6355      6358      6356      6355      6357
      6356      6355      6358      6357      6355      6358      6355      6358      6359
      6355      6358      6360      6355      6358      6361      6359      6358      6360
      6359      6358      6361      6360      6358      6361      6358      6361      6362
      6358      6361      6363      6358      6361      6364      6362      6361      6363
      6362      6361      6364      6363      6361      6364      6366      6365      6369
      6366      6365      6373      6366      6365      6377      6369      6365      6373
      6369      6365      6377      6373      6365      6377      6365      6366      6367
      6365      6366      6368      6365      6366      6381      6367      6366      6368
      6367      6366      6381      6368      6366      6381      6365      6369      6370
      6365      6369      6371      6365      6369      6372      6370      6369      6371
      6370      6369      6372      6371      6369      6372      6365      6373      6374
      6365      6373      6375      6365      6373      6376      6374      6373      6375
      6374      6373      6376      6375      6373      6376      6365      6377      6378
      6365      6377      6379      6365      6377      6380      6378      6377      6379
      6378      6377      6380      6379      6377      6380      6366      6381      6382
      6366      6381      6383      6366      6381      6387      6382      6381      6383
      6382      6381      6387      6383      6381      6387      6385      6384      6386
      6385      6384      6387      6385      6384      6388      6386      6384      6387
      6386      6384      6388      6387      6384      6388      6381      6387      6384
      6384      6388      6389      6388      6389      6390      6388      6389      6391
      6388      6389      6392      6390      6389      6391      6390      6389      6392
      6391      6389      6392      6389      6392      6393      6389      6392      6394
      6389      6392      6400      6393      6392      6394      6393      6392      6400
      6394      6392      6400      6392      6394      6395      6394      6395      6396
      6394      6395      6397      6396      6395      6397      6395      6397      6398
      6395      6397      6399      6395      6397      6409      6398      6397      6399
      6398      6397      6409      6399      6397      6409      6392      6400      6401
      6392      6400      6402      6392      6400      6403      6401      6400      6402
      6401      6400      6403      6402      6400      6403      6400      6403      6404
      6403      6404      6405      6403      6404      6406      6405      6404      6406
      6404      6406      6407      6404      6406      6408      6404      6406      6456
      6407      6406      6408      6407      6406      6456      6408      6406      6456
      6397      6409      6410      6397      6409      6411      6397      6409      6412
      6410      6409      6411      6410      6409      6412      6411      6409      6412
      6409      6412      6413      6409      6412      6414      6409      6412      6415
      6413      6412      6414      6413      6412      6415      6414      6412      6415
      6412      6415      6416      6412      6415      6417      6412      6415      6418
      6416      6415      6417      6416      6415      6418      6417      6415      6418
      6415      6418      6419      6415      6418      6420      6415      6418      6421
      6419      6418      6420      6419      6418      6421      6420      6418      6421
      6418      6421      6422      6418      6421      6423      6418      6421      6424
      6422      6421      6423      6422      6421      6424      6423      6421      6424
      6421      6424      6425      6421      6424      6426      6421      6424      6427
      6425      6424      6426      6425      6424      6427      6426      6424      6427
      6424      6427      6428      6424      6427      6429      6428      6427      6429
      6427      6429      6430      6427      6429      6431      6430      6429      6431
      6429      6431      6432      6429      6431      6433      6429      6431      6434
      6432      6431      6433      6432      6431      6434      6433      6431      6434
      6431      6434      6435      6431      6434      6436      6431      6434      6437
      6435      6434      6436      6435      6434      6437      6436      6434      6437
      6434      6437      6438      6434      6437      6439      6434      6437      6440
      6438      6437      6439      6438      6437      6440      6439      6437      6440
      6437      6440      6441      6437      6440      6442      6437      6440      6443
      6441      6440      6442      6441      6440      6443      6442      6440      6443
      6440      6443      6444      6440      6443      6445      6440      6443      6446
      6444      6443      6445      6444      6443      6446      6445      6443      6446
      6443      6446      6447      6443      6446      6448      6443      6446      6449
      6447      6446      6448      6447      6446      6449      6448      6446      6449
      6446      6449      6450      6446      6449      6451      6446      6449      6452
      6450      6449      6451      6450      6449      6452      6451      6449      6452
      6449      6452      6453      6449      6452      6454      6449      6452      6455
      6453      6452      6454      6453      6452      6455      6454      6452      6455
      6406      6456      6457      6406      6456      6458      6406      6456      6459
      6457      6456      6458      6457      6456      6459      6458      6456      6459
      6456      6459      6460      6456      6459      6461      6456      6459      6462
      6460      6459      6461      6460      6459      6462      6461      6459      6462
      6459      6462      6463      6459      6462      6464      6459      6462      6465
      6463      6462      6464      6463      6462      6465      6464      6462      6465
      6462      6465      6466      6462      6465      6467      6462      6465      6468
      6466      6465      6467      6466      6465      6468      6467      6465      6468
      6465      6468      6469      6465      6468      6470      6465      6468      6471
      6469      6468      6470      6469      6468      6471      6470      6468      6471
      6468      6471      6472      6468      6471      6473      6468      6471      6474
      6472      6471      6473      6472      6471      6474      6473      6471      6474
      6471      6474      6475      6471      6474      6476      6471      6474      6477
      6475      6474      6476      6475      6474      6477      6476      6474      6477
      6474      6477      6478      6474      6477      6479      6474      6477      6480
      6478      6477      6479      6478      6477      6480      6479      6477      6480
      6477      6480      6481      6477      6480      6482      6477      6480      6483
      6481      6480      6482      6481      6480      6483      6482      6480      6483
      6480      6483      6484      6480      6483      6485      6480      6483      6486
      6484      6483      6485      6484      6483      6486      6485      6483      6486
      6483      6486      6487      6483      6486      6488      6483      6486      6489
      6487      6486      6488      6487      6486      6489      6488      6486      6489
      6486      6489      6490      6486      6489      6491      6486      6489      6492
      6490      6489      6491      6490      6489      6492      6491      6489      6492
      6489      6492      6493      6489      6492      6494      6489      6492      6495
      6493      6492      6494      6493      6492      6495      6494      6492      6495
      6492      6495      6496      6492      6495      6497      6492      6495      6498
      6496      6495      6497      6496      6495      6498      6497      6495      6498
      6500      6499      6503      6500      6499      6507      6500      6499      6511
      6503      6499      6507      6503      6499      6511      6507      6499      6511
      6499      6500      6501      6499      6500      6502      6499      6500      6515
      6501      6500      6502      6501      6500      6515      6502      6500      6515
      6499      6503      6504      6499      6503      6505      6499      6503      6506
      6504      6503      6505      6504      6503      6506      6505      6503      6506
      6499      6507      6508      6499      6507      6509      6499      6507      6510
      6508      6507      6509      6508      6507      6510      6509      6507      6510
      6499      6511      6512      6499      6511      6513      6499      6511      6514
      6512      6511      6513      6512      6511      6514      6513      6511      6514
      6500      6515      6516      6500      6515      6517      6500      6515      6521
      6516      6515      6517      6516      6515      6521      6517      6515      6521
      6519      6518      6520      6519      6518      6521      6519      6518      6522
      6520      6518      6521      6520      6518      6522      6521      6518      6522
      6515      6521      6518      6518      6522      6523      6522      6523      6524
      6522      6523      6525      6522      6523      6526      6524      6523      6525
      6524      6523      6526      6525      6523      6526      6523      6526      6527
      6523      6526      6528      6523      6526      6534      6527      6526      6528
      6527      6526      6534      6528      6526      6534      6526      6528      6529
      6528      6529      6530      6528      6529      6531      6530      6529      6531
      6529      6531      6532      6529      6531      6533      6529      6531      6543
      6532      6531      6533      6532      6531      6543      6533      6531      6543
      6526      6534      6535      6526      6534      6536      6526      6534      6537
      6535      6534      6536      6535      6534      6537      6536      6534      6537
      6534      6537      6538      6537      6538      6539      6537      6538      6540
      6539      6538      6540      6538      6540      6541      6538      6540      6542
      6538      6540      6590      6541      6540      6542      6541      6540      6590
      6542      6540      6590      6531      6543      6544      6531      6543      6545
      6531      6543      6546      6544      6543      6545      6544      6543      6546
      6545      6543      6546      6543      6546      6547      6543      6546      6548
      6543      6546      6549      6547      6546      6548      6547      6546      6549
      6548      6546      6549      6546      6549      6550      6546      6549      6551
      6546      6549      6552      6550      6549      6551      6550      6549      6552
      6551      6549      6552      6549      6552      6553      6549      6552      6554
      6549      6552      6555      6553      6552      6554      6553      6552      6555
      6554      6552      6555      6552      6555      6556      6552      6555      6557
      6552      6555      6558      6556      6555      6557      6556      6555      6558
      6557      6555      6558      6555      6558      6559      6555      6558      6560
      6555      6558      6561      6559      6558      6560      6559      6558      6561
      6560      6558      6561      6558      6561      6562      6558      6561      6563
      6562      6561      6563      6561      6563      6564      6561      6563      6565
      6564      6563      6565      6563      6565      6566      6563      6565      6567
      6563      6565      6568      6566      6565      6567      6566      6565      6568
      6567      6565      6568      6565      6568      6569      6565      6568      6570
      6565      6568      6571      6569      6568      6570      6569      6568      6571
      6570      6568      6571      6568      6571      6572      6568      6571      6573
      6568      6571      6574      6572      6571      6573      6572      6571      6574
      6573      6571      6574      6571      6574      6575      6571      6574      6576
      6571      6574      6577      6575      6574      6576      6575      6574      6577
      6576      6574      6577      6574      6577      6578      6574      6577      6579
      6574      6577      6580      6578      6577      6579      6578      6577      6580
      6579      6577      6580      6577      6580      6581      6577      6580      6582
      6577      6580      6583      6581      6580      6582      6581      6580      6583
      6582      6580      6583      6580      6583      6584      6580      6583      6585
      6580      6583      6586      6584      6583      6585      6584      6583      6586
      6585      6583      6586      6583      6586      6587      6583      6586      6588
      6583      6586      6589      6587      6586      6588      6587      6586      6589
      6588      6586      6589      6540      6590      6591      6540      6590      6592
      6540      6590      6593      6591      6590      6592      6591      6590      6593
      6592      6590      6593      6590      6593      6594      6590      6593      6595
      6590      6593      6596      6594      6593      6595      6594      6593      6596
      6595      6593      6596      6593      6596      6597      6593      6596      6598
      6593      6596      6599      6597      6596      6598      6597      6596      6599
      6598      6596      6599      6596      6599      6600      6596      6599      6601
      6596      6599      6602      6600      6599      6601      6600      6599      6602
      6601      6599      6602      6599      6602      6603      6599      6602      6604
      6599      6602      6605      6603      6602      6604      6603      6602      6605
      6604      6602      6605      6602      6605      6606      6602      6605      6607
      6602      6605      6608      6606      6605      6607      6606      6605      6608
      6607      6605      6608      6605      6608      6609      6605      6608      6610
      6605      6608      6611      6609      6608      6610      6609      6608      6611
      6610      6608      6611      6608      6611      6612      6608      6611      6613
      6608      6611      6614      6612      6611      6613      6612      6611      6614
      6613      6611      6614      6611      6614      6615      6611      6614      6616
      6611      6614      6617      6615      6614      6616      6615      6614      6617
      6616      6614      6617      6614      6617      6618      6614      6617      6619
      6614      6617      6620      6618      6617      6619      6618      6617      6620
      6619      6617      6620      6617      6620      6621      6617      6620      6622
      6617      6620      6623      6621      6620      6622      6621      6620      6623
      6622      6620      6623      6620      6623      6624      6620      6623      6625
      6620      6623      6626      6624      6623      6625      6624      6623      6626
      6625      6623      6626      6623      6626      6627      6623      6626      6628
      6623      6626      6629      6627      6626      6628      6627      6626      6629
      6628      6626      6629      6626      6629      6630      6626      6629      6631
      6626      6629      6632      6630      6629      6631      6630      6629      6632
      6631      6629      6632      6634      6633      6635      6634      6633      6636
      6634      6633      6637      6635      6633      6636      6635      6633      6637
      6636      6633      6637      6633      6637      6638      6633      6637      6639
      6633      6637      6642      6638      6637      6639      6638      6637      6642
      6639      6637      6642      6637      6639      6640      6637      6639      6641
      6640      6639      6641      6637      6642      6643      6637      6642      6644
      6637      6642      6648      6643      6642      6644      6643      6642      6648
      6644      6642      6648      6646      6645      6647      6646      6645      6648
      6646      6645      6649      6647      6645      6648      6647      6645      6649
      6648      6645      6649      6642      6648      6645      6645      6649      6650
      6649      6650      6651      6649      6650      6652      6649      6650      6653
      6651      6650      6652      6651      6650      6653      6652      6650      6653
      6650      6653      6654      6650      6653      6655      6650      6653      6661
      6654      6653      6655      6654      6653      6661      6655      6653      6661
      6653      6655      6656      6655      6656      6657      6655      6656      6658
      6657      6656      6658      6656      6658      6659      6656      6658      6660
      6656      6658      6670      6659      6658      6660      6659      6658      6670
      6660      6658      6670      6653      6661      6662      6653      6661      6663
      6653      6661      6664      6662      6661      6663      6662      6661      6664
      6663      6661      6664      6661      6664      6665      6664      6665      6666
      6664      6665      6667      6666      6665      6667      6665      6667      6668
      6665      6667      6669      6665      6667      6717      6668      6667      6669
      6668      6667      6717      6669      6667      6717      6658      6670      6671
      6658      6670      6672      6658      6670      6673      6671      6670      6672
      6671      6670      6673      6672      6670      6673      6670      6673      6674
      6670      6673      6675      6670      6673      6676      6674      6673      6675
      6674      6673      6676      6675      6673      6676      6673      6676      6677
      6673      6676      6678      6673      6676      6679      6677      6676      6678
      6677      6676      6679      6678      6676      6679      6676      6679      6680
      6676      6679      6681      6676      6679      6682      6680      6679      6681
      6680      6679      6682      6681      6679      6682      6679      6682      6683
      6679      6682      6684      6679      6682      6685      6683      6682      6684
      6683      6682      6685      6684      6682      6685      6682      6685      6686
      6682      6685      6687      6682      6685      6688      6686      6685      6687
      6686      6685      6688      6687      6685      6688      6685      6688      6689
      6685      6688      6690      6689      6688      6690      6688      6690      6691
      6688      6690      6692      6691      6690      6692      6690      6692      6693
      6690      6692      6694      6690      6692      6695      6693      6692      6694
      6693      6692      6695      6694      6692      6695      6692      6695      6696
      6692      6695      6697      6692      6695      6698      6696      6695      6697
      6696      6695      6698      6697      6695      6698      6695      6698      6699
      6695      6698      6700      6695      6698      6701      6699      6698      6700
      6699      6698      6701      6700      6698      6701      6698      6701      6702
      6698      6701      6703      6698      6701      6704      6702      6701      6703
      6702      6701      6704      6703      6701      6704      6701      6704      6705
      6701      6704      6706      6701      6704      6707      6705      6704      6706
      6705      6704      6707      6706      6704      6707      6704      6707      6708
      6704      6707      6709      6704      6707      6710      6708      6707      6709
      6708      6707      6710      6709      6707      6710      6707      6710      6711
      6707      6710      6712      6707      6710      6713      6711      6710      6712
      6711      6710      6713      6712      6710      6713      6710      6713      6714
      6710      6713      6715      6710      6713      6716      6714      6713      6715
      6714      6713      6716      6715      6713      6716      6667      6717      6718
      6667      6717      6719      6667      6717      6720      6718      6717      6719
      6718      6717      6720      6719      6717      6720      6717      6720      6721
      6717      6720      6722      6717      6720      6723      6721      6720      6722
      6721      6720      6723      6722      6720      6723      6720      6723      6724
      6720      6723      6725      6720      6723      6726      6724      6723      6725
      6724      6723      6726      6725      6723      6726      6723      6726      6727
      6723      6726      6728      6723      6726      6729      6727      6726      6728
      6727      6726      6729      6728      6726      6729      6726      6729      6730
      6726      6729      6731      6726      6729      6732      6730      6729      6731
      6730      6729      6732      6731      6729      6732      6729      6732      6733
      6729      6732      6734      6729      6732      6735      6733      6732      6734
      6733      6732      6735      6734      6732      6735      6732      6735      6736
      6732      6735      6737      6732      6735      6738      6736      6735      6737
      6736      6735      6738      6737      6735      6738      6735      6738      6739
      6735      6738      6740      6735      6738      6741      6739      6738      6740
      6739      6738      6741      6740      6738      6741      6738      6741      6742
      6738      6741      6743      6738      6741      6744      6742      6741      6743
      6742      6741      6744      6743      6741      6744      6741      6744      6745
      6741      6744      6746      6741      6744      6747      6745      6744      6746
      6745      6744      6747      6746      6744      6747      6744      6747      6748
      6744      6747      6749      6744      6747      6750      6748      6747      6749
      6748      6747      6750      6749      6747      6750      6747      6750      6751
      6747      6750      6752      6747      6750      6753      6751      6750      6752
      6751      6750      6753      6752      6750      6753      6750      6753      6754
      6750      6753      6755      6750      6753      6756      6754      6753      6755
      6754      6753      6756      6755      6753      6756      6753      6756      6757
      6753      6756      6758      6753      6756      6759      6757      6756      6758
      6757      6756      6759      6758      6756      6759      6761      6760      6764
      6761      6760      6768      6761      6760      6772      6764      6760      6768
      6764      6760      6772      6768      6760      6772      6760      6761      6762
      6760      6761      6763      6760      6761      6776      6762      6761      6763
      6762      6761      6776      6763      6761      6776      6760      6764      6765
      6760      6764      6766      6760      6764      6767      6765      6764      6766
      6765      6764      6767      6766      6764      6767      6760      6768      6769
      6760      6768      6770      6760      6768      6771      6769      6768      6770
      6769      6768      6771      6770      6768      6771      6760      6772      6773
      6760      6772      6774      6760      6772      6775      6773      6772      6774
      6773      6772      6775      6774      6772      6775      6761      6776      6777
      6761      6776      6778      6761      6776      6782      6777      6776      6778
      6777      6776      6782      6778      6776      6782      6780      6779      6781
      6780      6779      6782      6780      6779      6783      6781      6779      6782
      6781      6779      6783      6782      6779      6783      6776      6782      6779
      6779      6783      6784      6783      6784      6785      6783      6784      6786
      6783      6784      6787      6785      6784      6786      6785      6784      6787
      6786      6784      6787      6784      6787      6788      6784      6787      6789
      6784      6787      6795      6788      6787      6789      6788      6787      6795
      6789      6787      6795      6787      6789      6790      6789      6790      6791
      6789      6790      6792      6791      6790      6792      6790      6792      6793
      6790      6792      6794      6790      6792      6804      6793      6792      6794
      6793      6792      6804      6794      6792      6804      6787      6795      6796
      6787      6795      6797      6787      6795      6798      6796      6795      6797
      6796      6795      6798      6797      6795      6798      6795      6798      6799
      6798      6799      6800      6798      6799      6801      6800      6799      6801
      6799      6801      6802      6799      6801      6803      6799      6801      6851
      6802      6801      6803      6802      6801      6851      6803      6801      6851
      6792      6804      6805      6792      6804      6806      6792      6804      6807
      6805      6804      6806      6805      6804      6807      6806      6804      6807
      6804      6807      6808      6804      6807      6809      6804      6807      6810
      6808      6807      6809      6808      6807      6810      6809      6807      6810
      6807      6810      6811      6807      6810      6812      6807      6810      6813
      6811      6810      6812      6811      6810      6813      6812      6810      6813
      6810      6813      6814      6810      6813      6815      6810      6813      6816
      6814      6813      6815      6814      6813      6816      6815      6813      6816
      6813      6816      6817      6813      6816      6818      6813      6816      6819
      6817      6816      6818      6817      6816      6819      6818      6816      6819
      6816      6819      6820      6816      6819      6821      6816      6819      6822
      6820      6819      6821      6820      6819      6822      6821      6819      6822
      6819      6822      6823      6819      6822      6824      6823      6822      6824
      6822      6824      6825      6822      6824      6826      6825      6824      6826
      6824      6826      6827      6824      6826      6828      6824      6826      6829
      6827      6826      6828      6827      6826      6829      6828      6826      6829
      6826      6829      6830      6826      6829      6831      6826      6829      6832
      6830      6829      6831      6830      6829      6832      6831      6829      6832
      6829      6832      6833      6829      6832      6834      6829      6832      6835
      6833      6832      6834      6833      6832      6835      6834      6832      6835
      6832      6835      6836      6832      6835      6837      6832      6835      6838
      6836      6835      6837      6836      6835      6838      6837      6835      6838
      6835      6838      6839      6835      6838      6840      6835      6838      6841
      6839      6838      6840      6839      6838      6841      6840      6838      6841
      6838      6841      6842      6838      6841      6843      6838      6841      6844
      6842      6841      6843      6842      6841      6844      6843      6841      6844
      6841      6844      6845      6841      6844      6846      6841      6844      6847
      6845      6844      6846      6845      6844      6847      6846      6844      6847
      6844      6847      6848      6844      6847      6849      6844      6847      6850
      6848      6847      6849      6848      6847      6850      6849      6847      6850
      6801      6851      6852      6801      6851      6853      6801      6851      6854
      6852      6851      6853      6852      6851      6854      6853      6851      6854
      6851      6854      6855      6851      6854      6856      6851      6854      6857
      6855      6854      6856      6855      6854      6857      6856      6854      6857
      6854      6857      6858      6854      6857      6859      6854      6857      6860
      6858      6857      6859      6858      6857      6860      6859      6857      6860
      6857      6860      6861      6857      6860      6862      6857      6860      6863
      6861      6860      6862      6861      6860      6863      6862      6860      6863
      6860      6863      6864      6860      6863      6865      6860      6863      6866
      6864      6863      6865      6864      6863      6866      6865      6863      6866
      6863      6866      6867      6863      6866      6868      6863      6866      6869
      6867      6866      6868      6867      6866      6869      6868      6866      6869
      6866      6869      6870      6866      6869      6871      6866      6869      6872
      6870      6869      6871      6870      6869      6872      6871      6869      6872
      6869      6872      6873      6869      6872      6874      6869      6872      6875
      6873      6872      6874      6873      6872      6875      6874      6872      6875
      6872      6875      6876      6872      6875      6877      6872      6875      6878
      6876      6875      6877      6876      6875      6878      6877      6875      6878
      6875      6878      6879      6875      6878      6880      6875      6878      6881
      6879      6878      6880      6879      6878      6881      6880      6878      6881
      6878      6881      6882      6878      6881      6883      6878      6881      6884
      6882      6881      6883      6882      6881      6884      6883      6881      6884
      6881      6884      6885      6881      6884      6886      6881      6884      6887
      6885      6884      6886      6885      6884      6887      6886      6884      6887
      6884      6887      6888      6884      6887      6889      6884      6887      6890
      6888      6887      6889      6888      6887      6890      6889      6887      6890
      6887      6890      6891      6887      6890      6892      6887      6890      6893
      6891      6890      6892      6891      6890      6893      6892      6890      6893
      6895      6894      6898      6895      6894      6902      6895      6894      6906
      6898      6894      6902      6898      6894      6906      6902      6894      6906
      6894      6895      6896      6894      6895      6897      6894      6895      6910
      6896      6895      6897      6896      6895      6910      6897      6895      6910
      6894      6898      6899      6894      6898      6900      6894      6898      6901
      6899      6898      6900      6899      6898      6901      6900      6898      6901
      6894      6902      6903      6894      6902      6904      6894      6902      6905
      6903      6902      6904      6903      6902      6905      6904      6902      6905
      6894      6906      6907      6894      6906      6908      6894      6906      6909
      6907      6906      6908      6907      6906      6909      6908      6906      6909
      6895      6910      6911      6895      6910      6912      6895      6910      6916
      6911      6910      6912      6911      6910      6916      6912      6910      6916
      6914      6913      6915      6914      6913      6916      6914      6913      6917
      6915      6913      6916      6915      6913      6917      6916      6913      6917
      6910      6916      6913      6913      6917      6918      6917      6918      6919
      6917      6918      6920      6917      6918      6921      6919      6918      6920
      6919      6918      6921      6920      6918      6921      6918      6921      6922
      6918      6921      6923      6918      6921      6929      6922      6921      6923
      6922      6921      6929      6923      6921      6929      6921      6923      6924
      6923      6924      6925      6923      6924      6926      6925      6924      6926
      6924      6926      6927      6924      6926      6928      6924      6926      6938
      6927      6926      6928      6927      6926      6938      6928      6926      6938
      6921      6929      6930      6921      6929      6931      6921      6929      6932
      6930      6929      6931      6930      6929      6932      6931      6929      6932
      6929      6932      6933      6932      6933      6934      6932      6933      6935
      6934      6933      6935      6933      6935      6936      6933      6935      6937
      6933      6935      6985      6936      6935      6937      6936      6935      6985
      6937      6935      6985      6926      6938      6939      6926      6938      6940
      6926      6938      6941      6939      6938      6940      6939      6938      6941
      6940      6938      6941      6938      6941      6942      6938      6941      6943
      6938      6941      6944      6942      6941      6943      6942      6941      6944
      6943      6941      6944      6941      6944      6945      6941      6944      6946
      6941      6944      6947      6945      6944      6946      6945      6944      6947
      6946      6944      6947      6944      6947      6948      6944      6947      6949
      6944      6947      6950      6948      6947      6949      6948      6947      6950
      6949      6947      6950      6947      6950      6951      6947      6950      6952
      6947      6950      6953      6951      6950      6952      6951      6950      6953
      6952      6950      6953      6950      6953      6954      6950      6953      6955
      6950      6953      6956      6954      6953      6955      6954      6953      6956
      6955      6953      6956      6953      6956      6957      6953      6956      6958
      6957      6956      6958      6956      6958      6959      6956      6958      6960
      6959      6958      6960      6958      6960      6961      6958      6960      6962
      6958      6960      6963      6961      6960      6962      6961      6960      6963
      6962      6960      6963      6960      6963      6964      6960      6963      6965
      6960      6963      6966      6964      6963      6965      6964      6963      6966
      6965      6963      6966      6963      6966      6967      6963      6966      6968
      6963      6966      6969      6967      6966      6968      6967      6966      6969
      6968      6966      6969      6966      6969      6970      6966      6969      6971
      6966      6969      6972      6970      6969      6971      6970      6969      6972
      6971      6969      6972      6969      6972      6973      6969      6972      6974
      6969      6972      6975      6973      6972      6974      6973      6972      6975
      6974      6972      6975      6972      6975      6976      6972      6975      6977
      6972      6975      6978      6976      6975      6977      6976      6975      6978
      6977      6975      6978      6975      6978      6979      6975      6978      6980
      6975      6978      6981      6979      6978      6980      6979      6978      6981
      6980      6978      6981      6978      6981      6982      6978      6981      6983
      6978      6981      6984      6982      6981      6983      6982      6981      6984
      6983      6981      6984      6935      6985      6986      6935      6985      6987
      6935      6985      6988      6986      6985      6987      6986      6985      6988
      6987      6985      6988      6985      6988      6989      6985      6988      6990
      6985      6988      6991      6989      6988      6990      6989      6988      6991
      6990      6988      6991      6988      6991      6992      6988      6991      6993
      6988      6991      6994      6992      6991      6993      6992      6991      6994
      6993      6991      6994      6991      6994      6995      6991      6994      6996
      6991      6994      6997      6995      6994      6996      6995      6994      6997
      6996      6994      6997      6994      6997      6998      6994      6997      6999
      6994      6997      7000      6998      6997      6999      6998      6997      7000
      6999      6997      7000      6997      7000      7001      6997      7000      7002
      6997      7000      7003      7001      7000      7002      7001      7000      7003
      7002      7000      7003      7000      7003      7004      7000      7003      7005
      7000      7003      7006      7004      7003      7005      7004      7003      7006
      7005      7003      7006      7003      7006      7007      7003      7006      7008
      7003      7006      7009      7007      7006      7008      7007      7006      7009
      7008      7006      7009      7006      7009      7010      7006      7009      7011
      7006      7009      7012      7010      7009      7011      7010      7009      7012
      7011      7009      7012      7009      7012      7013      7009      7012      7014
      7009      7012      7015      7013      7012      7014      7013      7012      7015
      7014      7012      7015      7012      7015      7016      7012      7015      7017
      7012      7015      7018      7016      7015      7017      7016      7015      7018
      7017      7015      7018      7015      7018      7019      7015      7018      7020
      7015      7018      7021      7019      7018      7020      7019      7018      7021
      7020      7018      7021      7018      7021      7022      7018      7021      7023
      7018      7021      7024      7022      7021      7023      7022      7021      7024
      7023      7021      7024      7021      7024      7025      7021      7024      7026
      7021      7024      7027      7025      7024      7026      7025      7024      7027
      7026      7024      7027      7029      7028      7032      7029      7028      7036
      7029      7028      7040      7032      7028      7036      7032      7028      7040
      7036      7028      7040      7028      7029      7030      7028      7029      7031
      7028      7029      7044      7030      7029      7031      7030      7029      7044
      7031      7029      7044      7028      7032      7033      7028      7032      7034
      7028      7032      7035      7033      7032      7034      7033      7032      7035
      7034      7032      7035      7028      7036      7037      7028      7036      7038
      7028      7036      7039      7037      7036      7038      7037      7036      7039
      7038      7036      7039      7028      7040      7041      7028      7040      7042
      7028      7040      7043      7041      7040      7042      7041      7040      7043
      7042      7040      7043      7029      7044      7045      7029      7044      7046
      7029      7044      7050      7045      7044      7046      7045      7044      7050
      7046      7044      7050      7048      7047      7049      7048      7047      7050
      7048      7047      7051      7049      7047      7050      7049      7047      7051
      7050      7047      7051      7044      7050      7047      7047      7051      7052
      7051      7052      7053      7051      7052      7054      7051      7052      7055
      7053      7052      7054      7053      7052      7055      7054      7052      7055
      7052      7055      7056      7052      7055      7057      7052      7055      7063
      7056      7055      7057      7056      7055      7063      7057      7055      7063
      7055      7057      7058      7057      7058      7059      7057      7058      7060
      7059      7058      7060      7058      7060      7061      7058      7060      7062
      7058      7060      7072      7061      7060      7062      7061      7060      7072
      7062      7060      7072      7055      7063      7064      7055      7063      7065
      7055      7063      7066      7064      7063      7065      7064      7063      7066
      7065      7063      7066      7063      7066      7067      7066      7067      7068
      7066      7067      7069      7068      7067      7069      7067      7069      7070
      7067      7069      7071      7067      7069      7119      7070      7069      7071
      7070      7069      7119      7071      7069      7119      7060      7072      7073
      7060      7072      7074      7060      7072      7075      7073      7072      7074
      7073      7072      7075      7074      7072      7075      7072      7075      7076
      7072      7075      7077      7072      7075      7078      7076      7075      7077
      7076      7075      7078      7077      7075      7078      7075      7078      7079
      7075      7078      7080      7075      7078      7081      7079      7078      7080
      7079      7078      7081      7080      7078      7081      7078      7081      7082
      7078      7081      7083      7078      7081      7084      7082      7081      7083
      7082      7081      7084      7083      7081      7084      7081      7084      7085
      7081      7084      7086      7081      7084      7087      7085      7084      7086
      7085      7084      7087      7086      7084      7087      7084      7087      7088
      7084      7087      7089      7084      7087      7090      7088      7087      7089
      7088      7087      7090      7089      7087      7090      7087      7090      7091
      7087      7090      7092      7091      7090      7092      7090      7092      7093
      7090      7092      7094      7093      7092      7094      7092      7094      7095
      7092      7094      7096      7092      7094      7097      7095      7094      7096
      7095      7094      7097      7096      7094      7097      7094      7097      7098
      7094      7097      7099      7094      7097      7100      7098      7097      7099
      7098      7097      7100      7099      7097      7100      7097      7100      7101
      7097      7100      7102      7097      7100      7103      7101      7100      7102
      7101      7100      7103      7102      7100      7103      7100      7103      7104
      7100      7103      7105      7100      7103      7106      7104      7103      7105
      7104      7103      7106      7105      7103      7106      7103      7106      7107
      7103      7106      7108      7103      7106      7109      7107      7106      7108
      7107      7106      7109      7108      7106      7109      7106      7109      7110
      7106      7109      7111      7106      7109      7112      7110      7109      7111
      7110      7109      7112      7111      7109      7112      7109      7112      7113
      7109      7112      7114      7109      7112      7115      7113      7112      7114
      7113      7112      7115      7114      7112      7115      7112      7115      7116
      7112      7115      7117      7112      7115      7118      7116      7115      7117
      7116      7115      7118      7117      7115      7118      7069      7119      7120
      7069      7119      7121      7069      7119      7122      7120      7119      7121
      7120      7119      7122      7121      7119      7122      7119      7122      7123
      7119      7122      7124      7119      7122      7125      7123      7122      7124
      7123      7122      7125      7124      7122      7125      7122      7125      7126
      7122      7125      7127      7122      7125      7128      7126      7125      7127
      7126      7125      7128      7127      7125      7128      7125      7128      7129
      7125      7128      7130      7125      7128      7131      7129      7128      7130
      7129      7128      7131      7130      7128      7131      7128      7131      7132
      7128      7131      7133      7128      7131      7134      7132      7131      7133
      7132      7131      7134      7133      7131      7134      7131      7134      7135
      7131      7134      7136      7131      7134      7137      7135      7134      7136
      7135      7134      7137      7136      7134      7137      7134      7137      7138
      7134      7137      7139      7134      7137      7140      7138      7137      7139
      7138      7137      7140      7139      7137      7140      7137      7140      7141
      7137      7140      7142      7137      7140      7143      7141      7140      7142
      7141      7140      7143      7142      7140      7143      7140      7143      7144
      7140      7143      7145      7140      7143      7146      7144      7143      7145
      7144      7143      7146      7145      7143      7146      7143      7146      7147
      7143      7146      7148      7143      7146      7149      7147      7146      7148
      7147      7146      7149      7148      7146      7149      7146      7149      7150
      7146      7149      7151      7146      7149      7152      7150      7149      7151
      7150      7149      7152      7151      7149      7152      7149      7152      7153
      7149      7152      7154      7149      7152      7155      7153      7152      7154
      7153      7152      7155      7154      7152      7155      7152      7155      7156
      7152      7155      7157      7152      7155      7158      7156      7155      7157
      7156      7155      7158      7157      7155      7158      7155      7158      7159
      7155      7158      7160      7155      7158      7161      7159      7158      7160
      7159      7158      7161      7160      7158      7161      7163      7162      7166
      7163      7162      7170      7163      7162      7174      7166      7162      7170
      7166      7162      7174      7170      7162      7174      7162      7163      7164
      7162      7163      7165      7162      7163      7178      7164      7163      7165
      7164      7163      7178      7165      7163      7178      7162      7166      7167
      7162      7166      7168      7162      7166      7169      7167      7166      7168
      7167      7166      7169      7168      7166      7169      7162      7170      7171
      7162      7170      7172      7162      7170      7173      7171      7170      7172
      7171      7170      7173      7172      7170      7173      7162      7174      7175
      7162      7174      7176      7162      7174      7177      7175      7174      7176
      7175      7174      7177      7176      7174      7177      7163      7178      7179
      7163      7178      7180      7163      7178      7184      7179      7178      7180
      7179      7178      7184      7180      7178      7184      7182      7181      7183
      7182      7181      7184      7182      7181      7185      7183      7181      7184
      7183      7181      7185      7184      7181      7185      7178      7184      7181
      7181      7185      7186      7185      7186      7187      7185      7186      7188
      7185      7186      7189      7187      7186      7188      7187      7186      7189
      7188      7186      7189      7186      7189      7190      7186      7189      7191
      7186      7189      7197      7190      7189      7191      7190      7189      7197
      7191      7189      7197      7189      7191      7192      7191      7192      7193
      7191      7192      7194      7193      7192      7194      7192      7194      7195
      7192      7194      7196      7192      7194      7206      7195      7194      7196
      7195      7194      7206      7196      7194      7206      7189      7197      7198
      7189      7197      7199      7189      7197      7200      7198      7197      7199
      7198      7197      7200      7199      7197      7200      7197      7200      7201
      7200      7201      7202      7200      7201      7203      7202      7201      7203
      7201      7203      7204      7201      7203      7205      7201      7203      7253
      7204      7203      7205      7204      7203      7253      7205      7203      7253
      7194      7206      7207      7194      7206      7208      7194      7206      7209
      7207      7206      7208      7207      7206      7209      7208      7206      7209
      7206      7209      7210      7206      7209      7211      7206      7209      7212
      7210      7209      7211      7210      7209      7212      7211      7209      7212
      7209      7212      7213      7209      7212      7214      7209      7212      7215
      7213      7212      7214      7213      7212      7215      7214      7212      7215
      7212      7215      7216      7212      7215      7217      7212      7215      7218
      7216      7215      7217      7216      7215      7218      7217      7215      7218
      7215      7218      7219      7215      7218      7220      7215      7218      7221
      7219      7218      7220      7219      7218      7221      7220      7218      7221
      7218      7221      7222      7218      7221      7223      7218      7221      7224
      7222      7221      7223      7222      7221      7224      7223      7221      7224
      7221      7224      7225      7221      7224      7226      7225      7224      7226
      7224      7226      7227      7224      7226      7228      7227      7226      7228
      7226      7228      7229      7226      7228      7230      7226      7228      7231
      7229      7228      7230      7229      7228      7231      7230      7228      7231
      7228      7231      7232      7228      7231      7233      7228      7231      7234
      7232      7231      7233      7232      7231      7234      7233      7231      7234
      7231      7234      7235      7231      7234      7236      7231      7234      7237
      7235      7234      7236      7235      7234      7237      7236      7234      7237
      7234      7237      7238      7234      7237      7239      7234      7237      7240
      7238      7237      7239      7238      7237      7240      7239      7237      7240
      7237      7240      7241      7237      7240      7242      7237      7240      7243
      7241      7240      7242      7241      7240      7243      7242      7240      7243
      7240      7243      7244      7240      7243      7245      7240      7243      7246
      7244      7243      7245      7244      7243      7246      7245      7243      7246
      7243      7246      7247      7243      7246      7248      7243      7246      7249
      7247      7246      7248      7247      7246      7249      7248      7246      7249
      7246      7249      7250      7246      7249      7251      7246      7249      7252
      7250      7249      7251      7250      7249      7252      7251      7249      7252
      7203      7253      7254      7203      7253      7255      7203      7253      7256
      7254      7253      7255      7254      7253      7256      7255      7253      7256
      7253      7256      7257      7253      7256      7258      7253      7256      7259
      7257      7256      7258      7257      7256      7259      7258      7256      7259
      7256      7259      7260      7256      7259      7261      7256      7259      7262
      7260      7259      7261      7260      7259      7262      7261      7259      7262
      7259      7262      7263      7259      7262      7264      7259      7262      7265
      7263      7262      7264      7263      7262      7265      7264      7262      7265
      7262      7265      7266      7262      7265      7267      7262      7265      7268
      7266      7265      7267      7266      7265      7268      7267      7265      7268
      7265      7268      7269      7265      7268      7270      7265      7268      7271
      7269      7268      7270      7269      7268      7271      7270      7268      7271
      7268      7271      7272      7268      7271      7273      7268      7271      7274
      7272      7271      7273      7272      7271      7274      7273      7271      7274
      7271      7274      7275      7271      7274      7276      7271      7274      7277
      7275      7274      7276      7275      7274      7277      7276      7274      7277
      7274      7277      7278      7274      7277      7279      7274      7277      7280
      7278      7277      7279      7278      7277      7280      7279      7277      7280
      7277      7280      7281      7277      7280      7282      7277      7280      7283
      7281      7280      7282      7281      7280      7283      7282      7280      7283
      7280      7283      7284      7280      7283      7285      7280      7283      7286
      7284      7283      7285      7284      7283      7286      7285      7283      7286
      7283      7286      7287      7283      7286      7288      7283      7286      7289
      7287      7286      7288      7287      7286      7289      7288      7286      7289
      7286      7289      7290      7286      7289      7291      7286      7289      7292
      7290      7289      7291      7290      7289      7292      7291      7289      7292
      7289      7292      7293      7289      7292      7294      7289      7292      7295
      7293      7292      7294      7293      7292      7295      7294      7292      7295
      7297      7296      7300      7297      7296      7304      7297      7296      7308
      7300      7296      7304      7300      7296      7308      7304      7296      7308
      7296      7297      7298      7296      7297      7299      7296      7297      7312
      7298      7297      7299      7298      7297      7312      7299      7297      7312
      7296      7300      7301      7296      7300      7302      7296      7300      7303
      7301      7300      7302      7301      7300      7303      7302      7300      7303
      7296      7304      7305      7296      7304      7306      7296      7304      7307
      7305      7304      7306      7305      7304      7307      7306      7304      7307
      7296      7308      7309      7296      7308      7310      7296      7308      7311
      7309      7308      7310      7309      7308      7311      7310      7308      7311
      7297      7312      7313      7297      7312      7314      7297      7312      7318
      7313      7312      7314      7313      7312      7318      7314      7312      7318
      7316      7315      7317      7316      7315      7318      7316      7315      7319
      7317      7315      7318      7317      7315      7319      7318      7315      7319
      7312      7318      7315      7315      7319      7320      7319      7320      7321
      7319      7320      7322      7319      7320      7323      7321      7320      7322
      7321      7320      7323      7322      7320      7323      7320      7323      7324
      7320      7323      7325      7320      7323      7331      7324      7323      7325
      7324      7323      7331      7325      7323      7331      7323      7325      7326
      7325      7326      7327      7325      7326      7328      7327      7326      7328
      7326      7328      7329      7326      7328      7330      7326      7328      7340
      7329      7328      7330      7329      7328      7340      7330      7328      7340
      7323      7331      7332      7323      7331      7333      7323      7331      7334
      7332      7331      7333      7332      7331      7334      7333      7331      7334
      7331      7334      7335      7334      7335      7336      7334      7335      7337
      7336      7335      7337      7335      7337      7338      7335      7337      7339
      7335      7337      7387      7338      7337      7339      7338      7337      7387
      7339      7337      7387      7328      7340      7341      7328      7340      7342
      7328      7340      7343      7341      7340      7342      7341      7340      7343
      7342      7340      7343      7340      7343      7344      7340      7343      7345
      7340      7343      7346      7344      7343      7345      7344      7343      7346
      7345      7343      7346      7343      7346      7347      7343      7346      7348
      7343      7346      7349      7347      7346      7348      7347      7346      7349
      7348      7346      7349      7346      7349      7350      7346      7349      7351
      7346      7349      7352      7350      7349      7351      7350      7349      7352
      7351      7349      7352      7349      7352      7353      7349      7352      7354
      7349      7352      7355      7353      7352      7354      7353      7352      7355
      7354      7352      7355      7352      7355      7356      7352      7355      7357
      7352      7355      7358      7356      7355      7357      7356      7355      7358
      7357      7355      7358      7355      7358      7359      7355      7358      7360
      7359      7358      7360      7358      7360      7361      7358      7360      7362
      7361      7360      7362      7360      7362      7363      7360      7362      7364
      7360      7362      7365      7363      7362      7364      7363      7362      7365
      7364      7362      7365      7362      7365      7366      7362      7365      7367
      7362      7365      7368      7366      7365      7367      7366      7365      7368
      7367      7365      7368      7365      7368      7369      7365      7368      7370
      7365      7368      7371      7369      7368      7370      7369      7368      7371
      7370      7368      7371      7368      7371      7372      7368      7371      7373
      7368      7371      7374      7372      7371      7373      7372      7371      7374
      7373      7371      7374      7371      7374      7375      7371      7374      7376
      7371      7374      7377      7375      7374      7376      7375      7374      7377
      7376      7374      7377      7374      7377      7378      7374      7377      7379
      7374      7377      7380      7378      7377      7379      7378      7377      7380
      7379      7377      7380      7377      7380      7381      7377      7380      7382
      7377      7380      7383      7381      7380      7382      7381      7380      7383
      7382      7380      7383      7380      7383      7384      7380      7383      7385
      7380      7383      7386      7384      7383      7385      7384      7383      7386
      7385      7383      7386      7337      7387      7388      7337      7387      7389
      7337      7387      7390      7388      7387      7389      7388      7387      7390
      7389      7387      7390      7387      7390      7391      7387      7390      7392
      7387      7390      7393      7391      7390      7392      7391      7390      7393
      7392      7390      7393      7390      7393      7394      7390      7393      7395
      7390      7393      7396      7394      7393      7395      7394      7393      7396
      7395      7393      7396      7393      7396      7397      7393      7396      7398
      7393      7396      7399      7397      7396      7398      7397      7396      7399
      7398      7396      7399      7396      7399      7400      7396      7399      7401
      7396      7399      7402      7400      7399      7401      7400      7399      7402
      7401      7399      7402      7399      7402      7403      7399      7402      7404
      7399      7402      7405      7403      7402      7404      7403      7402      7405
      7404      7402      7405      7402      7405      7406      7402      7405      7407
      7402      7405      7408      7406      7405      7407      7406      7405      7408
      7407      7405      7408      7405      7408      7409      7405      7408      7410
      7405      7408      7411      7409      7408      7410      7409      7408      7411
      7410      7408      7411      7408      7411      7412      7408      7411      7413
      7408      7411      7414      7412      7411      7413      7412      7411      7414
      7413      7411      7414      7411      7414      7415      7411      7414      7416
      7411      7414      7417      7415      7414      7416      7415      7414      7417
      7416      7414      7417      7414      7417      7418      7414      7417      7419
      7414      7417      7420      7418      7417      7419      7418      7417      7420
      7419      7417      7420      7417      7420      7421      7417      7420      7422
      7417      7420      7423      7421      7420      7422      7421      7420      7423
      7422      7420      7423      7420      7423      7424      7420      7423      7425
      7420      7423      7426      7424      7423      7425      7424      7423      7426
      7425      7423      7426      7423      7426      7427      7423      7426      7428
      7423      7426      7429      7427      7426      7428      7427      7426      7429
      7428      7426      7429      7431      7430      7434      7431      7430      7438
      7431      7430      7442      7434      7430      7438      7434      7430      7442
      7438      7430      7442      7430      7431      7432      7430      7431      7433
      7430      7431      7446      7432      7431      7433      7432      7431      7446
      7433      7431      7446      7430      7434      7435      7430      7434      7436
      7430      7434      7437      7435      7434      7436      7435      7434      7437
      7436      7434      7437      7430      7438      7439      7430      7438      7440
      7430      7438      7441      7439      7438      7440      7439      7438      7441
      7440      7438      7441      7430      7442      7443      7430      7442      7444
      7430      7442      7445      7443      7442      7444      7443      7442      7445
      7444      7442      7445      7431      7446      7447      7431      7446      7448
      7431      7446      7452      7447      7446      7448      7447      7446      7452
      7448      7446      7452      7450      7449      7451      7450      7449      7452
      7450      7449      7453      7451      7449      7452      7451      7449      7453
      7452      7449      7453      7446      7452      7449      7449      7453      7454
      7453      7454      7455      7453      7454      7456      7453      7454      7457
      7455      7454      7456      7455      7454      7457      7456      7454      7457
      7454      7457      7458      7454      7457      7459      7454      7457      7465
      7458      7457      7459      7458      7457      7465      7459      7457      7465
      7457      7459      7460      7459      7460      7461      7459      7460      7462
      7461      7460      7462      7460      7462      7463      7460      7462      7464
      7460      7462      7474      7463      7462      7464      7463      7462      7474
      7464      7462      7474      7457      7465      7466      7457      7465      7467
      7457      7465      7468      7466      7465      7467      7466      7465      7468
      7467      7465      7468      7465      7468      7469      7468      7469      7470
      7468      7469      7471      7470      7469      7471      7469      7471      7472
      7469      7471      7473      7469      7471      7521      7472      7471      7473
      7472      7471      7521      7473      7471      7521      7462      7474      7475
      7462      7474      7476      7462      7474      7477      7475      7474      7476
      7475      7474      7477      7476      7474      7477      7474      7477      7478
      7474      7477      7479      7474      7477      7480      7478      7477      7479
      7478      7477      7480      7479      7477      7480      7477      7480      7481
      7477      7480      7482      7477      7480      7483      7481      7480      7482
      7481      7480      7483      7482      7480      7483      7480      7483      7484
      7480      7483      7485      7480      7483      7486      7484      7483      7485
      7484      7483      7486      7485      7483      7486      7483      7486      7487
      7483      7486      7488      7483      7486      7489      7487      7486      7488
      7487      7486      7489      7488      7486      7489      7486      7489      7490
      7486      7489      7491      7486      7489      7492      7490      7489      7491
      7490      7489      7492      7491      7489      7492      7489      7492      7493
      7489      7492      7494      7493      7492      7494      7492      7494      7495
      7492      7494      7496      7495      7494      7496      7494      7496      7497
      7494      7496      7498      7494      7496      7499      7497      7496      7498
      7497      7496      7499      7498      7496      7499      7496      7499      7500
      7496      7499      7501      7496      7499      7502      7500      7499      7501
      7500      7499      7502      7501      7499      7502      7499      7502      7503
      7499      7502      7504      7499      7502      7505      7503      7502      7504
      7503      7502      7505      7504      7502      7505      7502      7505      7506
      7502      7505      7507      7502      7505      7508      7506      7505      7507
      7506      7505      7508      7507      7505      7508      7505      7508      7509
      7505      7508      7510      7505      7508      7511      7509      7508      7510
      7509      7508      7511      7510      7508      7511      7508      7511      7512
      7508      7511      7513      7508      7511      7514      7512      7511      7513
      7512      7511      7514      7513      7511      7514      7511      7514      7515
      7511      7514      7516      7511      7514      7517      7515      7514      7516
      7515      7514      7517      7516      7514      7517      7514      7517      7518
      7514      7517      7519      7514      7517      7520      7518      7517      7519
      7518      7517      7520      7519      7517      7520      7471      7521      7522
      7471      7521      7523      7471      7521      7524      7522      7521      7523
      7522      7521      7524      7523      7521      7524      7521      7524      7525
      7521      7524      7526      7521      7524      7527      7525      7524      7526
      7525      7524      7527      7526      7524      7527      7524      7527      7528
      7524      7527      7529      7524      7527      7530      7528      7527      7529
      7528      7527      7530      7529      7527      7530      7527      7530      7531
      7527      7530      7532      7527      7530      7533      7531      7530      7532
      7531      7530      7533      7532      7530      7533      7530      7533      7534
      7530      7533      7535      7530      7533      7536      7534      7533      7535
      7534      7533      7536      7535      7533      7536      7533      7536      7537
      7533      7536      7538      7533      7536      7539      7537      7536      7538
      7537      7536      7539      7538      7536      7539      7536      7539      7540
      7536      7539      7541      7536      7539      7542      7540      7539      7541
      7540      7539      7542      7541      7539      7542      7539      7542      7543
      7539      7542      7544      7539      7542      7545      7543      7542      7544
      7543      7542      7545      7544      7542      7545      7542      7545      7546
      7542      7545      7547      7542      7545      7548      7546      7545      7547
      7546      7545      7548      7547      7545      7548      7545      7548      7549
      7545      7548      7550      7545      7548      7551      7549      7548      7550
      7549      7548      7551      7550      7548      7551      7548      7551      7552
      7548      7551      7553      7548      7551      7554      7552      7551      7553
      7552      7551      7554      7553      7551      7554      7551      7554      7555
      7551      7554      7556      7551      7554      7557      7555      7554      7556
      7555      7554      7557      7556      7554      7557      7554      7557      7558
      7554      7557      7559      7554      7557      7560      7558      7557      7559
      7558      7557      7560      7559      7557      7560      7557      7560      7561
      7557      7560      7562      7557      7560      7563      7561      7560      7562
      7561      7560      7563      7562      7560      7563      7565      7564      7568
      7565      7564      7572      7565      7564      7576      7568      7564      7572
      7568      7564      7576      7572      7564      7576      7564      7565      7566
      7564      7565      7567      7564      7565      7580      7566      7565      7567
      7566      7565      7580      7567      7565      7580      7564      7568      7569
      7564      7568      7570      7564      7568      7571      7569      7568      7570
      7569      7568      7571      7570      7568      7571      7564      7572      7573
      7564      7572      7574      7564      7572      7575      7573      7572      7574
      7573      7572      7575      7574      7572      7575      7564      7576      7577
      7564      7576      7578      7564      7576      7579      7577      7576      7578
      7577      7576      7579      7578      7576      7579      7565      7580      7581
      7565      7580      7582      7565      7580      7586      7581      7580      7582
      7581      7580      7586      7582      7580      7586      7584      7583      7585
      7584      7583      7586      7584      7583      7587      7585      7583      7586
      7585      7583      7587      7586      7583      7587      7580      7586      7583
      7583      7587      7588      7587      7588      7589      7587      7588      7590
      7587      7588      7591      7589      7588      7590      7589      7588      7591
      7590      7588      7591      7588      7591      7592      7588      7591      7593
      7588      7591      7599      7592      7591      7593      7592      7591      7599
      7593      7591      7599      7591      7593      7594      7593      7594      7595
      7593      7594      7596      7595      7594      7596      7594      7596      7597
      7594      7596      7598      7594      7596      7608      7597      7596      7598
      7597      7596      7608      7598      7596      7608      7591      7599      7600
      7591      7599      7601      7591      7599      7602      7600      7599      7601
      7600      7599      7602      7601      7599      7602      7599      7602      7603
      7602      7603      7604      7602      7603      7605      7604      7603      7605
      7603      7605      7606      7603      7605      7607      7603      7605      7655
      7606      7605      7607      7606      7605      7655      7607      7605      7655
      7596      7608      7609      7596      7608      7610      7596      7608      7611
      7609      7608      7610      7609      7608      7611      7610      7608      7611
      7608      7611      7612      7608      7611      7613      7608      7611      7614
      7612      7611      7613      7612      7611      7614      7613      7611      7614
      7611      7614      7615      7611      7614      7616      7611      7614      7617
      7615      7614      7616      7615      7614      7617      7616      7614      7617
      7614      7617      7618      7614      7617      7619      7614      7617      7620
      7618      7617      7619      7618      7617      7620      7619      7617      7620
      7617      7620      7621      7617      7620      7622      7617      7620      7623
      7621      7620      7622      7621      7620      7623      7622      7620      7623
      7620      7623      7624      7620      7623      7625      7620      7623      7626
      7624      7623      7625      7624      7623      7626      7625      7623      7626
      7623      7626      7627      7623      7626      7628      7627      7626      7628
      7626      7628      7629      7626      7628      7630      7629      7628      7630
      7628      7630      7631      7628      7630      7632      7628      7630      7633
      7631      7630      7632      7631      7630      7633      7632      7630      7633
      7630      7633      7634      7630      7633      7635      7630      7633      7636
      7634      7633      7635      7634      7633      7636      7635      7633      7636
      7633      7636      7637      7633      7636      7638      7633      7636      7639
      7637      7636      7638      7637      7636      7639      7638      7636      7639
      7636      7639      7640      7636      7639      7641      7636      7639      7642
      7640      7639      7641      7640      7639      7642      7641      7639      7642
      7639      7642      7643      7639      7642      7644      7639      7642      7645
      7643      7642      7644      7643      7642      7645      7644      7642      7645
      7642      7645      7646      7642      7645      7647      7642      7645      7648
      7646      7645      7647      7646      7645      7648      7647      7645      7648
      7645      7648      7649      7645      7648      7650      7645      7648      7651
      7649      7648      7650      7649      7648      7651      7650      7648      7651
      7648      7651      7652      7648      7651      7653      7648      7651      7654
      7652      7651      7653      7652      7651      7654      7653      7651      7654
      7605      7655      7656      7605      7655      7657      7605      7655      7658
      7656      7655      7657      7656      7655      7658      7657      7655      7658
      7655      7658      7659      7655      7658      7660      7655      7658      7661
      7659      7658      7660      7659      7658      7661      7660      7658      7661
      7658      7661      7662      7658      7661      7663      7658      7661      7664
      7662      7661      7663      7662      7661      7664      7663      7661      7664
      7661      7664      7665      7661      7664      7666      7661      7664      7667
      7665      7664      7666      7665      7664      7667      7666      7664      7667
      7664      7667      7668      7664      7667      7669      7664      7667      7670
      7668      7667      7669      7668      7667      7670      7669      7667      7670
      7667      7670      7671      7667      7670      7672      7667      7670      7673
      7671      7670      7672      7671      7670      7673      7672      7670      7673
      7670      7673      7674      7670      7673      7675      7670      7673      7676
      7674      7673      7675      7674      7673      7676      7675      7673      7676
      7673      7676      7677      7673      7676      7678      7673      7676      7679
      7677      7676      7678      7677      7676      7679      7678      7676      7679
      7676      7679      7680      7676      7679      7681      7676      7679      7682
      7680      7679      7681      7680      7679      7682      7681      7679      7682
      7679      7682      7683      7679      7682      7684      7679      7682      7685
      7683      7682      7684      7683      7682      7685      7684      7682      7685
      7682      7685      7686      7682      7685      7687      7682      7685      7688
      7686      7685      7687      7686      7685      7688      7687      7685      7688
      7685      7688      7689      7685      7688      7690      7685      7688      7691
      7689      7688      7690      7689      7688      7691      7690      7688      7691
      7688      7691      7692      7688      7691      7693      7688      7691      7694
      7692      7691      7693      7692      7691      7694      7693      7691      7694
      7691      7694      7695      7691      7694      7696      7691      7694      7697
      7695      7694      7696      7695      7694      7697      7696      7694      7697
      7699      7698      7702      7699      7698      7706      7699      7698      7710
      7702      7698      7706      7702      7698      7710      7706      7698      7710
      7698      7699      7700      7698      7699      7701      7698      7699      7714
      7700      7699      7701      7700      7699      7714      7701      7699      7714
      7698      7702      7703      7698      7702      7704      7698      7702      7705
      7703      7702      7704      7703      7702      7705      7704      7702      7705
      7698      7706      7707      7698      7706      7708      7698      7706      7709
      7707      7706      7708      7707      7706      7709      7708      7706      7709
      7698      7710      7711      7698      7710      7712      7698      7710      7713
      7711      7710      7712      7711      7710      7713      7712      7710      7713
      7699      7714      7715      7699      7714      7716      7699      7714      7720
      7715      7714      7716      7715      7714      7720      7716      7714      7720
      7718      7717      7719      7718      7717      7720      7718      7717      7721
      7719      7717      7720      7719      7717      7721      7720      7717      7721
      7714      7720      7717      7717      7721      7722      7721      7722      7723
      7721      7722      7724      7721      7722      7725      7723      7722      7724
      7723      7722      7725      7724      7722      7725      7722      7725      7726
      7722      7725      7727      7722      7725      7733      7726      7725      7727
      7726      7725      7733      7727      7725      7733      7725      7727      7728
      7727      7728      7729      7727      7728      7730      7729      7728      7730
      7728      7730      7731      7728      7730      7732      7728      7730      7742
      7731      7730      7732      7731      7730      7742      7732      7730      7742
      7725      7733      7734      7725      7733      7735      7725      7733      7736
      7734      7733      7735      7734      7733      7736      7735      7733      7736
      7733      7736      7737      7736      7737      7738      7736      7737      7739
      7738      7737      7739      7737      7739      7740      7737      7739      7741
      7737      7739      7789      7740      7739      7741      7740      7739      7789
      7741      7739      7789      7730      7742      7743      7730      7742      7744
      7730      7742      7745      7743      7742      7744      7743      7742      7745
      7744      7742      7745      7742      7745      7746      7742      7745      7747
      7742      7745      7748      7746      7745      7747      7746      7745      7748
      7747      7745      7748      7745      7748      7749      7745      7748      7750
      7745      7748      7751      7749      7748      7750      7749      7748      7751
      7750      7748      7751      7748      7751      7752      7748      7751      7753
      7748      7751      7754      7752      7751      7753      7752      7751      7754
      7753      7751      7754      7751      7754      7755      7751      7754      7756
      7751      7754      7757      7755      7754      7756      7755      7754      7757
      7756      7754      7757      7754      7757      7758      7754      7757      7759
      7754      7757      7760      7758      7757      7759      7758      7757      7760
      7759      7757      7760      7757      7760      7761      7757      7760      7762
      7761      7760      7762      7760      7762      7763      7760      7762      7764
      7763      7762      7764      7762      7764      7765      7762      7764      7766
      7762      7764      7767      7765      7764      7766      7765      7764      7767
      7766      7764      7767      7764      7767      7768      7764      7767      7769
      7764      7767      7770      7768      7767      7769      7768      7767      7770
      7769      7767      7770      7767      7770      7771      7767      7770      7772
      7767      7770      7773      7771      7770      7772      7771      7770      7773
      7772      7770      7773      7770      7773      7774      7770      7773      7775
      7770      7773      7776      7774      7773      7775      7774      7773      7776
      7775      7773      7776      7773      7776      7777      7773      7776      7778
      7773      7776      7779      7777      7776      7778      7777      7776      7779
      7778      7776      7779      7776      7779      7780      7776      7779      7781
      7776      7779      7782      7780      7779      7781      7780      7779      7782
      7781      7779      7782      7779      7782      7783      7779      7782      7784
      7779      7782      7785      7783      7782      7784      7783      7782      7785
      7784      7782      7785      7782      7785      7786      7782      7785      7787
      7782      7785      7788      7786      7785      7787      7786      7785      7788
      7787      7785      7788      7739      7789      7790      7739      7789      7791
      7739      7789      7792      7790      7789      7791      7790      7789      7792
      7791      7789      7792      7789      7792      7793      7789      7792      7794
      7789      7792      7795      7793      7792      7794      7793      7792      7795
      7794      7792      7795      7792      7795      7796      7792      7795      7797
      7792      7795      7798      7796      7795      7797      7796      7795      7798
      7797      7795      7798      7795      7798      7799      7795      7798      7800
      7795      7798      7801      7799      7798      7800      7799      7798      7801
      7800      7798      7801      7798      7801      7802      7798      7801      7803
      7798      7801      7804      7802      7801      7803      7802      7801      7804
      7803      7801      7804      7801      7804      7805      7801      7804      7806
      7801      7804      7807      7805      7804      7806      7805      7804      7807
      7806      7804      7807      7804      7807      7808      7804      7807      7809
      7804      7807      7810      7808      7807      7809      7808      7807      7810
      7809      7807      7810      7807      7810      7811      7807      7810      7812
      7807      7810      7813      7811      7810      7812      7811      7810      7813
      7812      7810      7813      7810      7813      7814      7810      7813      7815
      7810      7813      7816      7814      7813      7815      7814      7813      7816
      7815      7813      7816      7813      7816      7817      7813      7816      7818
      7813      7816      7819      7817      7816      7818      7817      7816      7819
      7818      7816      7819      7816      7819      7820      7816      7819      7821
      7816      7819      7822      7820      7819      7821      7820      7819      7822
      7821      7819      7822      7819      7822      7823      7819      7822      7824
      7819      7822      7825      7823      7822      7824      7823      7822      7825
      7824      7822      7825      7822      7825      7826      7822      7825      7827
      7822      7825      7828      7826      7825      7827      7826      7825      7828
      7827      7825      7828      7825      7828      7829      7825      7828      7830
      7825      7828      7831      7829      7828      7830      7829      7828      7831
      7830      7828      7831      7833      7832      7836      7833      7832      7840
      7833      7832      7844      7836      7832      7840      7836      7832      7844
      7840      7832      7844      7832      7833      7834      7832      7833      7835
      7832      7833      7848      7834      7833      7835      7834      7833      7848
      7835      7833      7848      7832      7836      7837      7832      7836      7838
      7832      7836      7839      7837      7836      7838      7837      7836      7839
      7838      7836      7839      7832      7840      7841      7832      7840      7842
      7832      7840      7843      7841      7840      7842      7841      7840      7843
      7842      7840      7843      7832      7844      7845      7832      7844      7846
      7832      7844      7847      7845      7844      7846      7845      7844      7847
      7846      7844      7847      7833      7848      7849      7833      7848      7850
      7833      7848      7854      7849      7848      7850      7849      7848      7854
      7850      7848      7854      7852      7851      7853      7852      7851      7854
      7852      7851      7855      7853      7851      7854      7853      7851      7855
      7854      7851      7855      7848      7854      7851      7851      7855      7856
      7855      7856      7857      7855      7856      7858      7855      7856      7859
      7857      7856      7858      7857      7856      7859      7858      7856      7859
      7856      7859      7860      7856      7859      7861      7856      7859      7867
      7860      7859      7861      7860      7859      7867      7861      7859      7867
      7859      7861      7862      7861      7862      7863      7861      7862      7864
      7863      7862      7864      7862      7864      7865      7862      7864      7866
      7862      7864      7876      7865      7864      7866      7865      7864      7876
      7866      7864      7876      7859      7867      7868      7859      7867      7869
      7859      7867      7870      7868      7867      7869      7868      7867      7870
      7869      7867      7870      7867      7870      7871      7870      7871      7872
      7870      7871      7873      7872      7871      7873      7871      7873      7874
      7871      7873      7875      7871      7873      7923      7874      7873      7875
      7874      7873      7923      7875      7873      7923      7864      7876      7877
      7864      7876      7878      7864      7876      7879      7877      7876      7878
      7877      7876      7879      7878      7876      7879      7876      7879      7880
      7876      7879      7881      7876      7879      7882      7880      7879      7881
      7880      7879      7882      7881      7879      7882      7879      7882      7883
      7879      7882      7884      7879      7882      7885      7883      7882      7884
      7883      7882      7885      7884      7882      7885      7882      7885      7886
      7882      7885      7887      7882      7885      7888      7886      7885      7887
      7886      7885      7888      7887      7885      7888      7885      7888      7889
      7885      7888      7890      7885      7888      7891      7889      7888      7890
      7889      7888      7891      7890      7888      7891      7888      7891      7892
      7888      7891      7893      7888      7891      7894      7892      7891      7893
      7892      7891      7894      7893      7891      7894      7891      7894      7895
      7891      7894      7896      7895      7894      7896      7894      7896      7897
      7894      7896      7898      7897      7896      7898      7896      7898      7899
      7896      7898      7900      7896      7898      7901      7899      7898      7900
      7899      7898      7901      7900      7898      7901      7898      7901      7902
      7898      7901      7903      7898      7901      7904      7902      7901      7903
      7902      7901      7904      7903      7901      7904      7901      7904      7905
      7901      7904      7906      7901      7904      7907      7905      7904      7906
      7905      7904      7907      7906      7904      7907      7904      7907      7908
      7904      7907      7909      7904      7907      7910      7908      7907      7909
      7908      7907      7910      7909      7907      7910      7907      7910      7911
      7907      7910      7912      7907      7910      7913      7911      7910      7912
      7911      7910      7913      7912      7910      7913      7910      7913      7914
      7910      7913      7915      7910      7913      7916      7914      7913      7915
      7914      7913      7916      7915      7913      7916      7913      7916      7917
      7913      7916      7918      7913      7916      7919      7917      7916      7918
      7917      7916      7919      7918      7916      7919      7916      7919      7920
      7916      7919      7921      7916      7919      7922      7920      7919      7921
      7920      7919      7922      7921      7919      7922      7873      7923      7924
      7873      7923      7925      7873      7923      7926      7924      7923      7925
      7924      7923      7926      7925      7923      7926      7923      7926      7927
      7923      7926      7928      7923      7926      7929      7927      7926      7928
      7927      7926      7929      7928      7926      7929      7926      7929      7930
      7926      7929      7931      7926      7929      7932      7930      7929      7931
      7930      7929      7932      7931      7929      7932      7929      7932      7933
      7929      7932      7934      7929      7932      7935      7933      7932      7934
      7933      7932      7935      7934      7932      7935      7932      7935      7936
      7932      7935      7937      7932      7935      7938      7936      7935      7937
      7936      7935      7938      7937      7935      7938      7935      7938      7939
      7935      7938      7940      7935      7938      7941      7939      7938      7940
      7939      7938      7941      7940      7938      7941      7938      7941      7942
      7938      7941      7943      7938      7941      7944      7942      7941      7943
      7942      7941      7944      7943      7941      7944      7941      7944      7945
      7941      7944      7946      7941      7944      7947      7945      7944      7946
      7945      7944      7947      7946      7944      7947      7944      7947      7948
      7944      7947      7949      7944      7947      7950      7948      7947      7949
      7948      7947      7950      7949      7947      7950      7947      7950      7951
      7947      7950      7952      7947      7950      7953      7951      7950      7952
      7951      7950      7953      7952      7950      7953      7950      7953      7954
      7950      7953      7955      7950      7953      7956      7954      7953      7955
      7954      7953      7956      7955      7953      7956      7953      7956      7957
      7953      7956      7958      7953      7956      7959      7957      7956      7958
      7957      7956      7959      7958      7956      7959      7956      7959      7960
      7956      7959      7961      7956      7959      7962      7960      7959      7961
      7960      7959      7962      7961      7959      7962      7959      7962      7963
      7959      7962      7964      7959      7962      7965      7963      7962      7964
      7963      7962      7965      7964      7962      7965      7967      7966      7970
      7967      7966      7974      7967      7966      7978      7970      7966      7974
      7970      7966      7978      7974      7966      7978      7966      7967      7968
      7966      7967      7969      7966      7967      7982      7968      7967      7969
      7968      7967      7982      7969      7967      7982      7966      7970      7971
      7966      7970      7972      7966      7970      7973      7971      7970      7972
      7971      7970      7973      7972      7970      7973      7966      7974      7975
      7966      7974      7976      7966      7974      7977      7975      7974      7976
      7975      7974      7977      7976      7974      7977      7966      7978      7979
      7966      7978      7980      7966      7978      7981      7979      7978      7980
      7979      7978      7981      7980      7978      7981      7967      7982      7983
      7967      7982      7984      7967      7982      7988      7983      7982      7984
      7983      7982      7988      7984      7982      7988      7986      7985      7987
      7986      7985      7988      7986      7985      7989      7987      7985      7988
      7987      7985      7989      7988      7985      7989      7982      7988      7985
      7985      7989      7990      7989      7990      7991      7989      7990      7992
      7989      7990      7993      7991      7990      7992      7991      7990      7993
      7992      7990      7993      7990      7993      7994      7990      7993      7995
      7990      7993      8001      7994      7993      7995      7994      7993      8001
      7995      7993      8001      7993      7995      7996      7995      7996      7997
      7995      7996      7998      7997      7996      7998      7996      7998      7999
      7996      7998      8000      7996      7998      8010      7999      7998      8000
      7999      7998      8010      8000      7998      8010      7993      8001      8002
      7993      8001      8003      7993      8001      8004      8002      8001      8003
      8002      8001      8004      8003      8001      8004      8001      8004      8005
      8004      8005      8006      8004      8005      8007      8006      8005      8007
      8005      8007      8008      8005      8007      8009      8005      8007      8057
      8008      8007      8009      8008      8007      8057      8009      8007      8057
      7998      8010      8011      7998      8010      8012      7998      8010      8013
      8011      8010      8012      8011      8010      8013      8012      8010      8013
      8010      8013      8014      8010      8013      8015      8010      8013      8016
      8014      8013      8015      8014      8013      8016      8015      8013      8016
      8013      8016      8017      8013      8016      8018      8013      8016      8019
      8017      8016      8018      8017      8016      8019      8018      8016      8019
      8016      8019      8020      8016      8019      8021      8016      8019      8022
      8020      8019      8021      8020      8019      8022      8021      8019      8022
      8019      8022      8023      8019      8022      8024      8019      8022      8025
      8023      8022      8024      8023      8022      8025      8024      8022      8025
      8022      8025      8026      8022      8025      8027      8022      8025      8028
      8026      8025      8027      8026      8025      8028      8027      8025      8028
      8025      8028      8029      8025      8028      8030      8029      8028      8030
      8028      8030      8031      8028      8030      8032      8031      8030      8032
      8030      8032      8033      8030      8032      8034      8030      8032      8035
      8033      8032      8034      8033      8032      8035      8034      8032      8035
      8032      8035      8036      8032      8035      8037      8032      8035      8038
      8036      8035      8037      8036      8035      8038      8037      8035      8038
      8035      8038      8039      8035      8038      8040      8035      8038      8041
      8039      8038      8040      8039      8038      8041      8040      8038      8041
      8038      8041      8042      8038      8041      8043      8038      8041      8044
      8042      8041      8043      8042      8041      8044      8043      8041      8044
      8041      8044      8045      8041      8044      8046      8041      8044      8047
      8045      8044      8046      8045      8044      8047      8046      8044      8047
      8044      8047      8048      8044      8047      8049      8044      8047      8050
      8048      8047      8049      8048      8047      8050      8049      8047      8050
      8047      8050      8051      8047      8050      8052      8047      8050      8053
      8051      8050      8052      8051      8050      8053      8052      8050      8053
      8050      8053      8054      8050      8053      8055      8050      8053      8056
      8054      8053      8055      8054      8053      8056      8055      8053      8056
      8007      8057      8058      8007      8057      8059      8007      8057      8060
      8058      8057      8059      8058      8057      8060      8059      8057      8060
      8057      8060      8061      8057      8060      8062      8057      8060      8063
      8061      8060      8062      8061      8060      8063      8062      8060      8063
      8060      8063      8064      8060      8063      8065      8060      8063      8066
      8064      8063      8065      8064      8063      8066      8065      8063      8066
      8063      8066      8067      8063      8066      8068      8063      8066      8069
      8067      8066      8068      8067      8066      8069      8068      8066      8069
      8066      8069      8070      8066      8069      8071      8066      8069      8072
      8070      8069      8071      8070      8069      8072      8071      8069      8072
      8069      8072      8073      8069      8072      8074      8069      8072      8075
      8073      8072      8074      8073      8072      8075      8074      8072      8075
      8072      8075      8076      8072      8075      8077      8072      8075      8078
      8076      8075      8077      8076      8075      8078      8077      8075      8078
      8075      8078      8079      8075      8078      8080      8075      8078      8081
      8079      8078      8080      8079      8078      8081      8080      8078      8081
      8078      8081      8082      8078      8081      8083      8078      8081      8084
      8082      8081      8083      8082      8081      8084      8083      8081      8084
      8081      8084      8085      8081      8084      8086      8081      8084      8087
      8085      8084      8086      8085      8084      8087      8086      8084      8087
      8084      8087      8088      8084      8087      8089      8084      8087      8090
      8088      8087      8089      8088      8087      8090      8089      8087      8090
      8087      8090      8091      8087      8090      8092      8087      8090      8093
      8091      8090      8092      8091      8090      8093      8092      8090      8093
      8090      8093      8094      8090      8093      8095      8090      8093      8096
      8094      8093      8095      8094      8093      8096      8095      8093      8096
      8093      8096      8097      8093      8096      8098      8093      8096      8099
      8097      8096      8098      8097      8096      8099      8098      8096      8099
      8101      8100      8104      8101      8100      8108      8101      8100      8112
      8104      8100      8108      8104      8100      8112      8108      8100      8112
      8100      8101      8102      8100      8101      8103      8100      8101      8116
      8102      8101      8103      8102      8101      8116      8103      8101      8116
      8100      8104      8105      8100      8104      8106      8100      8104      8107
      8105      8104      8106      8105      8104      8107      8106      8104      8107
      8100      8108      8109      8100      8108      8110      8100      8108      8111
      8109      8108      8110      8109      8108      8111      8110      8108      8111
      8100      8112      8113      8100      8112      8114      8100      8112      8115
      8113      8112      8114      8113      8112      8115      8114      8112      8115
      8101      8116      8117      8101      8116      8118      8101      8116      8122
      8117      8116      8118      8117      8116      8122      8118      8116      8122
      8120      8119      8121      8120      8119      8122      8120      8119      8123
      8121      8119      8122      8121      8119      8123      8122      8119      8123
      8116      8122      8119      8119      8123      8124      8123      8124      8125
      8123      8124      8126      8123      8124      8127      8125      8124      8126
      8125      8124      8127      8126      8124      8127      8124      8127      8128
      8124      8127      8129      8124      8127      8135      8128      8127      8129
      8128      8127      8135      8129      8127      8135      8127      8129      8130
      8129      8130      8131      8129      8130      8132      8131      8130      8132
      8130      8132      8133      8130      8132      8134      8130      8132      8144
      8133      8132      8134      8133      8132      8144      8134      8132      8144
      8127      8135      8136      8127      8135      8137      8127      8135      8138
      8136      8135      8137      8136      8135      8138      8137      8135      8138
      8135      8138      8139      8138      8139      8140      8138      8139      8141
      8140      8139      8141      8139      8141      8142      8139      8141      8143
      8139      8141      8191      8142      8141      8143      8142      8141      8191
      8143      8141      8191      8132      8144      8145      8132      8144      8146
      8132      8144      8147      8145      8144      8146      8145      8144      8147
      8146      8144      8147      8144      8147      8148      8144      8147      8149
      8144      8147      8150      8148      8147      8149      8148      8147      8150
      8149      8147      8150      8147      8150      8151      8147      8150      8152
      8147      8150      8153      8151      8150      8152      8151      8150      8153
      8152      8150      8153      8150      8153      8154      8150      8153      8155
      8150      8153      8156      8154      8153      8155      8154      8153      8156
      8155      8153      8156      8153      8156      8157      8153      8156      8158
      8153      8156      8159      8157      8156      8158      8157      8156      8159
      8158      8156      8159      8156      8159      8160      8156      8159      8161
      8156      8159      8162      8160      8159      8161      8160      8159      8162
      8161      8159      8162      8159      8162      8163      8159      8162      8164
      8163      8162      8164      8162      8164      8165      8162      8164      8166
      8165      8164      8166      8164      8166      8167      8164      8166      8168
      8164      8166      8169      8167      8166      8168      8167      8166      8169
      8168      8166      8169      8166      8169      8170      8166      8169      8171
      8166      8169      8172      8170      8169      8171      8170      8169      8172
      8171      8169      8172      8169      8172      8173      8169      8172      8174
      8169      8172      8175      8173      8172      8174      8173      8172      8175
      8174      8172      8175      8172      8175      8176      8172      8175      8177
      8172      8175      8178      8176      8175      8177      8176      8175      8178
      8177      8175      8178      8175      8178      8179      8175      8178      8180
      8175      8178      8181      8179      8178      8180      8179      8178      8181
      8180      8178      8181      8178      8181      8182      8178      8181      8183
      8178      8181      8184      8182      8181      8183      8182      8181      8184
      8183      8181      8184      8181      8184      8185      8181      8184      8186
      8181      8184      8187      8185      8184      8186      8185      8184      8187
      8186      8184      8187      8184      8187      8188      8184      8187      8189
      8184      8187      8190      8188      8187      8189      8188      8187      8190
      8189      8187      8190      8141      8191      8192      8141      8191      8193
      8141      8191      8194      8192      8191      8193      8192      8191      8194
      8193      8191      8194      8191      8194      8195      8191      8194      8196
      8191      8194      8197      8195      8194      8196      8195      8194      8197
      8196      8194      8197      8194      8197      8198      8194      8197      8199
      8194      8197      8200      8198      8197      8199      8198      8197      8200
      8199      8197      8200      8197      8200      8201      8197      8200      8202
      8197      8200      8203      8201      8200      8202      8201      8200      8203
      8202      8200      8203      8200      8203      8204      8200      8203      8205
      8200      8203      8206      8204      8203      8205      8204      8203      8206
      8205      8203      8206      8203      8206      8207      8203      8206      8208
      8203      8206      8209      8207      8206      8208      8207      8206      8209
      8208      8206      8209      8206      8209      8210      8206      8209      8211
      8206      8209      8212      8210      8209      8211      8210      8209      8212
      8211      8209      8212      8209      8212      8213      8209      8212      8214
      8209      8212      8215      8213      8212      8214      8213      8212      8215
      8214      8212      8215      8212      8215      8216      8212      8215      8217
      8212      8215      8218      8216      8215      8217      8216      8215      8218
      8217      8215      8218      8215      8218      8219      8215      8218      8220
      8215      8218      8221      8219      8218      8220      8219      8218      8221
      8220      8218      8221      8218      8221      8222      8218      8221      8223
      8218      8221      8224      8222      8221      8223      8222      8221      8224
      8223      8221      8224      8221      8224      8225      8221      8224      8226
      8221      8224      8227      8225      8224      8226      8225      8224      8227
      8226      8224      8227      8224      8227      8228      8224      8227      8229
      8224      8227      8230      8228      8227      8229      8228      8227      8230
      8229      8227      8230      8227      8230      8231      8227      8230      8232
      8227      8230      8233      8231      8230      8232      8231      8230      8233
      8232      8230      8233      8235      8234      8238      8235      8234      8242
      8235      8234      8246      8238      8234      8242      8238      8234      8246
      8242      8234      8246      8234      8235      8236      8234      8235      8237
      8234      8235      8250      8236      8235      8237      8236      8235      8250
      8237      8235      8250      8234      8238      8239      8234      8238      8240
      8234      8238      8241      8239      8238      8240      8239      8238      8241
      8240      8238      8241      8234      8242      8243      8234      8242      8244
      8234      8242      8245      8243      8242      8244      8243      8242      8245
      8244      8242      8245      8234      8246      8247      8234      8246      8248
      8234      8246      8249      8247      8246      8248      8247      8246      8249
      8248      8246      8249      8235      8250      8251      8235      8250      8252
      8235      8250      8256      8251      8250      8252      8251      8250      8256
      8252      8250      8256      8254      8253      8255      8254      8253      8256
      8254      8253      8257      8255      8253      8256      8255      8253      8257
      8256      8253      8257      8250      8256      8253      8253      8257      8258
      8257      8258      8259      8257      8258      8260      8257      8258      8261
      8259      8258      8260      8259      8258      8261      8260      8258      8261
      8258      8261      8262      8258      8261      8263      8258      8261      8269
      8262      8261      8263      8262      8261      8269      8263      8261      8269
      8261      8263      8264      8263      8264      8265      8263      8264      8266
      8265      8264      8266      8264      8266      8267      8264      8266      8268
      8264      8266      8278      8267      8266      8268      8267      8266      8278
      8268      8266      8278      8261      8269      8270      8261      8269      8271
      8261      8269      8272      8270      8269      8271      8270      8269      8272
      8271      8269      8272      8269      8272      8273      8272      8273      8274
      8272      8273      8275      8274      8273      8275      8273      8275      8276
      8273      8275      8277      8273      8275      8325      8276      8275      8277
      8276      8275      8325      8277      8275      8325      8266      8278      8279
      8266      8278      8280      8266      8278      8281      8279      8278      8280
      8279      8278      8281      8280      8278      8281      8278      8281      8282
      8278      8281      8283      8278      8281      8284      8282      8281      8283
      8282      8281      8284      8283      8281      8284      8281      8284      8285
      8281      8284      8286      8281      8284      8287      8285      8284      8286
      8285      8284      8287      8286      8284      8287      8284      8287      8288
      8284      8287      8289      8284      8287      8290      8288      8287      8289
      8288      8287      8290      8289      8287      8290      8287      8290      8291
      8287      8290      8292      8287      8290      8293      8291      8290      8292
      8291      8290      8293      8292      8290      8293      8290      8293      8294
      8290      8293      8295      8290      8293      8296      8294      8293      8295
      8294      8293      8296      8295      8293      8296      8293      8296      8297
      8293      8296      8298      8297      8296      8298      8296      8298      8299
      8296      8298      8300      8299      8298      8300      8298      8300      8301
      8298      8300      8302      8298      8300      8303      8301      8300      8302
      8301      8300      8303      8302      8300      8303      8300      8303      8304
      8300      8303      8305      8300      8303      8306      8304      8303      8305
      8304      8303      8306      8305      8303      8306      8303      8306      8307
      8303      8306      8308      8303      8306      8309      8307      8306      8308
      8307      8306      8309      8308      8306      8309      8306      8309      8310
      8306      8309      8311      8306      8309      8312      8310      8309      8311
      8310      8309      8312      8311      8309      8312      8309      8312      8313
      8309      8312      8314      8309      8312      8315      8313      8312      8314
      8313      8312      8315      8314      8312      8315      8312      8315      8316
      8312      8315      8317      8312      8315      8318      8316      8315      8317
      8316      8315      8318      8317      8315      8318      8315      8318      8319
      8315      8318      8320      8315      8318      8321      8319      8318      8320
      8319      8318      8321      8320      8318      8321      8318      8321      8322
      8318      8321      8323      8318      8321      8324      8322      8321      8323
      8322      8321      8324      8323      8321      8324      8275      8325      8326
      8275      8325      8327      8275      8325      8328      8326      8325      8327
      8326      8325      8328      8327      8325      8328      8325      8328      8329
      8325      8328      8330      8325      8328      8331      8329      8328      8330
      8329      8328      8331      8330      8328      8331      8328      8331      8332
      8328      8331      8333      8328      8331      8334      8332      8331      8333
      8332      8331      8334      8333      8331      8334      8331      8334      8335
      8331      8334      8336      8331      8334      8337      8335      8334      8336
      8335      8334      8337      8336      8334      8337      8334      8337      8338
      8334      8337      8339      8334      8337      8340      8338      8337      8339
      8338      8337      8340      8339      8337      8340      8337      8340      8341
      8337      8340      8342      8337      8340      8343      8341      8340      8342
      8341      8340      8343      8342      8340      8343      8340      8343      8344
      8340      8343      8345      8340      8343      8346      8344      8343      8345
      8344      8343      8346      8345      8343      8346      8343      8346      8347
      8343      8346      8348      8343      8346      8349      8347      8346      8348
      8347      8346      8349      8348      8346      8349      8346      8349      8350
      8346      8349      8351      8346      8349      8352      8350      8349      8351
      8350      8349      8352      8351      8349      8352      8349      8352      8353
      8349      8352      8354      8349      8352      8355      8353      8352      8354
      8353      8352      8355      8354      8352      8355      8352      8355      8356
      8352      8355      8357      8352      8355      8358      8356      8355      8357
      8356      8355      8358      8357      8355      8358      8355      8358      8359
      8355      8358      8360      8355      8358      8361      8359      8358      8360
      8359      8358      8361      8360      8358      8361      8358      8361      8362
      8358      8361      8363      8358      8361      8364      8362      8361      8363
      8362      8361      8364      8363      8361      8364      8361      8364      8365
      8361      8364      8366      8361      8364      8367      8365      8364      8366
      8365      8364      8367      8366      8364      8367      8369      8368      8370
      8369      8368      8371      8369      8368      8372      8370      8368      8371
      8370      8368      8372      8371      8368      8372      8368      8372      8373
      8368      8372      8374      8368      8372      8377      8373      8372      8374
      8373      8372      8377      8374      8372      8377      8372      8374      8375
      8372      8374      8376      8375      8374      8376      8372      8377      8378
      8372      8377      8379      8372      8377      8383      8378      8377      8379
      8378      8377      8383      8379      8377      8383      8381      8380      8382
      8381      8380      8383      8381      8380      8384      8382      8380      8383
      8382      8380      8384      8383      8380      8384      8377      8383      8380
      8380      8384      8385      8384      8385      8386      8384      8385      8387
      8384      8385      8388      8386      8385      8387      8386      8385      8388
      8387      8385      8388      8385      8388      8389      8385      8388      8390
      8385      8388      8396      8389      8388      8390      8389      8388      8396
      8390      8388      8396      8388      8390      8391      8390      8391      8392
      8390      8391      8393      8392      8391      8393      8391      8393      8394
      8391      8393      8395      8391      8393      8405      8394      8393      8395
      8394      8393      8405      8395      8393      8405      8388      8396      8397
      8388      8396      8398      8388      8396      8399      8397      8396      8398
      8397      8396      8399      8398      8396      8399      8396      8399      8400
      8399      8400      8401      8399      8400      8402      8401      8400      8402
      8400      8402      8403      8400      8402      8404      8400      8402      8452
      8403      8402      8404      8403      8402      8452      8404      8402      8452
      8393      8405      8406      8393      8405      8407      8393      8405      8408
      8406      8405      8407      8406      8405      8408      8407      8405      8408
      8405      8408      8409      8405      8408      8410      8405      8408      8411
      8409      8408      8410      8409      8408      8411      8410      8408      8411
      8408      8411      8412      8408      8411      8413      8408      8411      8414
      8412      8411      8413      8412      8411      8414      8413      8411      8414
      8411      8414      8415      8411      8414      8416      8411      8414      8417
      8415      8414      8416      8415      8414      8417      8416      8414      8417
      8414      8417      8418      8414      8417      8419      8414      8417      8420
      8418      8417      8419      8418      8417      8420      8419      8417      8420
      8417      8420      8421      8417      8420      8422      8417      8420      8423
      8421      8420      8422      8421      8420      8423      8422      8420      8423
      8420      8423      8424      8420      8423      8425      8424      8423      8425
      8423      8425      8426      8423      8425      8427      8426      8425      8427
      8425      8427      8428      8425      8427      8429      8425      8427      8430
      8428      8427      8429      8428      8427      8430      8429      8427      8430
      8427      8430      8431      8427      8430      8432      8427      8430      8433
      8431      8430      8432      8431      8430      8433      8432      8430      8433
      8430      8433      8434      8430      8433      8435      8430      8433      8436
      8434      8433      8435      8434      8433      8436      8435      8433      8436
      8433      8436      8437      8433      8436      8438      8433      8436      8439
      8437      8436      8438      8437      8436      8439      8438      8436      8439
      8436      8439      8440      8436      8439      8441      8436      8439      8442
      8440      8439      8441      8440      8439      8442      8441      8439      8442
      8439      8442      8443      8439      8442      8444      8439      8442      8445
      8443      8442      8444      8443      8442      8445      8444      8442      8445
      8442      8445      8446      8442      8445      8447      8442      8445      8448
      8446      8445      8447      8446      8445      8448      8447      8445      8448
      8445      8448      8449      8445      8448      8450      8445      8448      8451
      8449      8448      8450      8449      8448      8451      8450      8448      8451
      8402      8452      8453      8402      8452      8454      8402      8452      8455
      8453      8452      8454      8453      8452      8455      8454      8452      8455
      8452      8455      8456      8452      8455      8457      8452      8455      8458
      8456      8455      8457      8456      8455      8458      8457      8455      8458
      8455      8458      8459      8455      8458      8460      8455      8458      8461
      8459      8458      8460      8459      8458      8461      8460      8458      8461
      8458      8461      8462      8458      8461      8463      8458      8461      8464
      8462      8461      8463      8462      8461      8464      8463      8461      8464
      8461      8464      8465      8461      8464      8466      8461      8464      8467
      8465      8464      8466      8465      8464      8467      8466      8464      8467
      8464      8467      8468      8464      8467      8469      8464      8467      8470
      8468      8467      8469      8468      8467      8470      8469      8467      8470
      8467      8470      8471      8467      8470      8472      8467      8470      8473
      8471      8470      8472      8471      8470      8473      8472      8470      8473
      8470      8473      8474      8470      8473      8475      8470      8473      8476
      8474      8473      8475      8474      8473      8476      8475      8473      8476
      8473      8476      8477      8473      8476      8478      8473      8476      8479
      8477      8476      8478      8477      8476      8479      8478      8476      8479
      8476      8479      8480      8476      8479      8481      8476      8479      8482
      8480      8479      8481      8480      8479      8482      8481      8479      8482
      8479      8482      8483      8479      8482      8484      8479      8482      8485
      8483      8482      8484      8483      8482      8485      8484      8482      8485
      8482      8485      8486      8482      8485      8487      8482      8485      8488
      8486      8485      8487      8486      8485      8488      8487      8485      8488
      8485      8488      8489      8485      8488      8490      8485      8488      8491
      8489      8488      8490      8489      8488      8491      8490      8488      8491
      8488      8491      8492      8488      8491      8493      8488      8491      8494
      8492      8491      8493      8492      8491      8494      8493      8491      8494
      8496      8495      8497      8496      8495      8498      8496      8495      8499
      8497      8495      8498      8497      8495      8499      8498      8495      8499
      8495      8499      8500      8495      8499      8501      8495      8499      8504
      8500      8499      8501      8500      8499      8504      8501      8499      8504
      8499      8501      8502      8499      8501      8503      8502      8501      8503
      8499      8504      8505      8499      8504      8506      8499      8504      8510
      8505      8504      8506      8505      8504      8510      8506      8504      8510
      8508      8507      8509      8508      8507      8510      8508      8507      8511
      8509      8507      8510      8509      8507      8511      8510      8507      8511
      8504      8510      8507      8507      8511      8512      8511      8512      8513
      8511      8512      8514      8511      8512      8515      8513      8512      8514
      8513      8512      8515      8514      8512      8515      8512      8515      8516
      8512      8515      8517      8512      8515      8523      8516      8515      8517
      8516      8515      8523      8517      8515      8523      8515      8517      8518
      8517      8518      8519      8517      8518      8520      8519      8518      8520
      8518      8520      8521      8518      8520      8522      8518      8520      8532
      8521      8520      8522      8521      8520      8532      8522      8520      8532
      8515      8523      8524      8515      8523      8525      8515      8523      8526
      8524      8523      8525      8524      8523      8526      8525      8523      8526
      8523      8526      8527      8526      8527      8528      8526      8527      8529
      8528      8527      8529      8527      8529      8530      8527      8529      8531
      8527      8529      8579      8530      8529      8531      8530      8529      8579
      8531      8529      8579      8520      8532      8533      8520      8532      8534
      8520      8532      8535      8533      8532      8534      8533      8532      8535
      8534      8532      8535      8532      8535      8536      8532      8535      8537
      8532      8535      8538      8536      8535      8537      8536      8535      8538
      8537      8535      8538      8535      8538      8539      8535      8538      8540
      8535      8538      8541      8539      8538      8540      8539      8538      8541
      8540      8538      8541      8538      8541      8542      8538      8541      8543
      8538      8541      8544      8542      8541      8543      8542      8541      8544
      8543      8541      8544      8541      8544      8545      8541      8544      8546
      8541      8544      8547      8545      8544      8546      8545      8544      8547
      8546      8544      8547      8544      8547      8548      8544      8547      8549
      8544      8547      8550      8548      8547      8549      8548      8547      8550
      8549      8547      8550      8547      8550      8551      8547      8550      8552
      8551      8550      8552      8550      8552      8553      8550      8552      8554
      8553      8552      8554      8552      8554      8555      8552      8554      8556
      8552      8554      8557      8555      8554      8556      8555      8554      8557
      8556      8554      8557      8554      8557      8558      8554      8557      8559
      8554      8557      8560      8558      8557      8559      8558      8557      8560
      8559      8557      8560      8557      8560      8561      8557      8560      8562
      8557      8560      8563      8561      8560      8562      8561      8560      8563
      8562      8560      8563      8560      8563      8564      8560      8563      8565
      8560      8563      8566      8564      8563      8565      8564      8563      8566
      8565      8563      8566      8563      8566      8567      8563      8566      8568
      8563      8566      8569      8567      8566      8568      8567      8566      8569
      8568      8566      8569      8566      8569      8570      8566      8569      8571
      8566      8569      8572      8570      8569      8571      8570      8569      8572
      8571      8569      8572      8569      8572      8573      8569      8572      8574
      8569      8572      8575      8573      8572      8574      8573      8572      8575
      8574      8572      8575      8572      8575      8576      8572      8575      8577
      8572      8575      8578      8576      8575      8577      8576      8575      8578
      8577      8575      8578      8529      8579      8580      8529      8579      8581
      8529      8579      8582      8580      8579      8581      8580      8579      8582
      8581      8579      8582      8579      8582      8583      8579      8582      8584
      8579      8582      8585      8583      8582      8584      8583      8582      8585
      8584      8582      8585      8582      8585      8586      8582      8585      8587
      8582      8585      8588      8586      8585      8587      8586      8585      8588
      8587      8585      8588      8585      8588      8589      8585      8588      8590
      8585      8588      8591      8589      8588      8590      8589      8588      8591
      8590      8588      8591      8588      8591      8592      8588      8591      8593
      8588      8591      8594      8592      8591      8593      8592      8591      8594
      8593      8591      8594      8591      8594      8595      8591      8594      8596
      8591      8594      8597      8595      8594      8596      8595      8594      8597
      8596      8594      8597      8594      8597      8598      8594      8597      8599
      8594      8597      8600      8598      8597      8599      8598      8597      8600
      8599      8597      8600      8597      8600      8601      8597      8600      8602
      8597      8600      8603      8601      8600      8602      8601      8600      8603
      8602      8600      8603      8600      8603      8604      8600      8603      8605
      8600      8603      8606      8604      8603      8605      8604      8603      8606
      8605      8603      8606      8603      8606      8607      8603      8606      8608
      8603      8606      8609      8607      8606      8608      8607      8606      8609
      8608      8606      8609      8606      8609      8610      8606      8609      8611
      8606      8609      8612      8610      8609      8611      8610      8609      8612
      8611      8609      8612      8609      8612      8613      8609      8612      8614
      8609      8612      8615      8613      8612      8614      8613      8612      8615
      8614      8612      8615      8612      8615      8616      8612      8615      8617
      8612      8615      8618      8616      8615      8617      8616      8615      8618
      8617      8615      8618      8615      8618      8619      8615      8618      8620
      8615      8618      8621      8619      8618      8620      8619      8618      8621
      8620      8618      8621      8623      8622      8626      8623      8622      8630
      8623      8622      8634      8626      8622      8630      8626      8622      8634
      8630      8622      8634      8622      8623      8624      8622      8623      8625
      8622      8623      8638      8624      8623      8625      8624      8623      8638
      8625      8623      8638      8622      8626      8627      8622      8626      8628
      8622      8626      8629      8627      8626      8628      8627      8626      8629
      8628      8626      8629      8622      8630      8631      8622      8630      8632
      8622      8630      8633      8631      8630      8632      8631      8630      8633
      8632      8630      8633      8622      8634      8635      8622      8634      8636
      8622      8634      8637      8635      8634      8636      8635      8634      8637
      8636      8634      8637      8623      8638      8639      8623      8638      8640
      8623      8638      8644      8639      8638      8640      8639      8638      8644
      8640      8638      8644      8642      8641      8643      8642      8641      8644
      8642      8641      8645      8643      8641      8644      8643      8641      8645
      8644      8641      8645      8638      8644      8641      8641      8645      8646
      8645      8646      8647      8645      8646      8648      8645      8646      8649
      8647      8646      8648      8647      8646      8649      8648      8646      8649
      8646      8649      8650      8646      8649      8651      8646      8649      8657
      8650      8649      8651      8650      8649      8657      8651      8649      8657
      8649      8651      8652      8651      8652      8653      8651      8652      8654
      8653      8652      8654      8652      8654      8655      8652      8654      8656
      8652      8654      8666      8655      8654      8656      8655      8654      8666
      8656      8654      8666      8649      8657      8658      8649      8657      8659
      8649      8657      8660      8658      8657      8659      8658      8657      8660
      8659      8657      8660      8657      8660      8661      8660      8661      8662
      8660      8661      8663      8662      8661      8663      8661      8663      8664
      8661      8663      8665      8661      8663      8713      8664      8663      8665
      8664      8663      8713      8665      8663      8713      8654      8666      8667
      8654      8666      8668      8654      8666      8669      8667      8666      8668
      8667      8666      8669      8668      8666      8669      8666      8669      8670
      8666      8669      8671      8666      8669      8672      8670      8669      8671
      8670      8669      8672      8671      8669      8672      8669      8672      8673
      8669      8672      8674      8669      8672      8675      8673      8672      8674
      8673      8672      8675      8674      8672      8675      8672      8675      8676
      8672      8675      8677      8672      8675      8678      8676      8675      8677
      8676      8675      8678      8677      8675      8678      8675      8678      8679
      8675      8678      8680      8675      8678      8681      8679      8678      8680
      8679      8678      8681      8680      8678      8681      8678      8681      8682
      8678      8681      8683      8678      8681      8684      8682      8681      8683
      8682      8681      8684      8683      8681      8684      8681      8684      8685
      8681      8684      8686      8685      8684      8686      8684      8686      8687
      8684      8686      8688      8687      8686      8688      8686      8688      8689
      8686      8688      8690      8686      8688      8691      8689      8688      8690
      8689      8688      8691      8690      8688      8691      8688      8691      8692
      8688      8691      8693      8688      8691      8694      8692      8691      8693
      8692      8691      8694      8693      8691      8694      8691      8694      8695
      8691      8694      8696      8691      8694      8697      8695      8694      8696
      8695      8694      8697      8696      8694      8697      8694      8697      8698
      8694      8697      8699      8694      8697      8700      8698      8697      8699
      8698      8697      8700      8699      8697      8700      8697      8700      8701
      8697      8700      8702      8697      8700      8703      8701      8700      8702
      8701      8700      8703      8702      8700      8703      8700      8703      8704
      8700      8703      8705      8700      8703      8706      8704      8703      8705
      8704      8703      8706      8705      8703      8706      8703      8706      8707
      8703      8706      8708      8703      8706      8709      8707      8706      8708
      8707      8706      8709      8708      8706      8709      8706      8709      8710
      8706      8709      8711      8706      8709      8712      8710      8709      8711
      8710      8709      8712      8711      8709      8712      8663      8713      8714
      8663      8713      8715      8663      8713      8716      8714      8713      8715
      8714      8713      8716      8715      8713      8716      8713      8716      8717
      8713      8716      8718      8713      8716      8719      8717      8716      8718
      8717      8716      8719      8718      8716      8719      8716      8719      8720
      8716      8719      8721      8716      8719      8722      8720      8719      8721
      8720      8719      8722      8721      8719      8722      8719      8722      8723
      8719      8722      8724      8719      8722      8725      8723      8722      8724
      8723      8722      8725      8724      8722      8725      8722      8725      8726
      8722      8725      8727      8722      8725      8728      8726      8725      8727
      8726      8725      8728      8727      8725      8728      8725      8728      8729
      8725      8728      8730      8725      8728      8731      8729      8728      8730
      8729      8728      8731      8730      8728      8731      8728      8731      8732
      8728      8731      8733      8728      8731      8734      8732      8731      8733
      8732      8731      8734      8733      8731      8734      8731      8734      8735
      8731      8734      8736      8731      8734      8737      8735      8734      8736
      8735      8734      8737      8736      8734      8737      8734      8737      8738
      8734      8737      8739      8734      8737      8740      8738      8737      8739
      8738      8737      8740      8739      8737      8740      8737      8740      8741
      8737      8740      8742      8737      8740      8743      8741      8740      8742
      8741      8740      8743      8742      8740      8743      8740      8743      8744
      8740      8743      8745      8740      8743      8746      8744      8743      8745
      8744      8743      8746      8745      8743      8746      8743      8746      8747
      8743      8746      8748      8743      8746      8749      8747      8746      8748
      8747      8746      8749      8748      8746      8749      8746      8749      8750
      8746      8749      8751      8746      8749      8752      8750      8749      8751
      8750      8749      8752      8751      8749      8752      8749      8752      8753
      8749      8752      8754      8749      8752      8755      8753      8752      8754
      8753      8752      8755      8754      8752      8755      8757      8756      8758
      8757      8756      8759      8757      8756      8760      8758      8756      8759
      8758      8756      8760      8759      8756      8760      8756      8760      8761
      8756      8760      8762      8756      8760      8765      8761      8760      8762
      8761      8760      8765      8762      8760      8765      8760      8762      8763
      8760      8762      8764      8763      8762      8764      8760      8765      8766
      8760      8765      8767      8760      8765      8771      8766      8765      8767
      8766      8765      8771      8767      8765      8771      8769      8768      8770
      8769      8768      8771      8769      8768      8772      8770      8768      8771
      8770      8768      8772      8771      8768      8772      8765      8771      8768
      8768      8772      8773      8772      8773      8774      8772      8773      8775
      8772      8773      8776      8774      8773      8775      8774      8773      8776
      8775      8773      8776      8773      8776      8777      8773      8776      8778
      8773      8776      8784      8777      8776      8778      8777      8776      8784
      8778      8776      8784      8776      8778      8779      8778      8779      8780
      8778      8779      8781      8780      8779      8781      8779      8781      8782
      8779      8781      8783      8779      8781      8793      8782      8781      8783
      8782      8781      8793      8783      8781      8793      8776      8784      8785
      8776      8784      8786      8776      8784      8787      8785      8784      8786
      8785      8784      8787      8786      8784      8787      8784      8787      8788
      8787      8788      8789      8787      8788      8790      8789      8788      8790
      8788      8790      8791      8788      8790      8792      8788      8790      8840
      8791      8790      8792      8791      8790      8840      8792      8790      8840
      8781      8793      8794      8781      8793      8795      8781      8793      8796
      8794      8793      8795      8794      8793      8796      8795      8793      8796
      8793      8796      8797      8793      8796      8798      8793      8796      8799
      8797      8796      8798      8797      8796      8799      8798      8796      8799
      8796      8799      8800      8796      8799      8801      8796      8799      8802
      8800      8799      8801      8800      8799      8802      8801      8799      8802
      8799      8802      8803      8799      8802      8804      8799      8802      8805
      8803      8802      8804      8803      8802      8805      8804      8802      8805
      8802      8805      8806      8802      8805      8807      8802      8805      8808
      8806      8805      8807      8806      8805      8808      8807      8805      8808
      8805      8808      8809      8805      8808      8810      8805      8808      8811
      8809      8808      8810      8809      8808      8811      8810      8808      8811
      8808      8811      8812      8808      8811      8813      8812      8811      8813
      8811      8813      8814      8811      8813      8815      8814      8813      8815
      8813      8815      8816      8813      8815      8817      8813      8815      8818
      8816      8815      8817      8816      8815      8818      8817      8815      8818
      8815      8818      8819      8815      8818      8820      8815      8818      8821
      8819      8818      8820      8819      8818      8821      8820      8818      8821
      8818      8821      8822      8818      8821      8823      8818      8821      8824
      8822      8821      8823      8822      8821      8824      8823      8821      8824
      8821      8824      8825      8821      8824      8826      8821      8824      8827
      8825      8824      8826      8825      8824      8827      8826      8824      8827
      8824      8827      8828      8824      8827      8829      8824      8827      8830
      8828      8827      8829      8828      8827      8830      8829      8827      8830
      8827      8830      8831      8827      8830      8832      8827      8830      8833
      8831      8830      8832      8831      8830      8833      8832      8830      8833
      8830      8833      8834      8830      8833      8835      8830      8833      8836
      8834      8833      8835      8834      8833      8836      8835      8833      8836
      8833      8836      8837      8833      8836      8838      8833      8836      8839
      8837      8836      8838      8837      8836      8839      8838      8836      8839
      8790      8840      8841      8790      8840      8842      8790      8840      8843
      8841      8840      8842      8841      8840      8843      8842      8840      8843
      8840      8843      8844      8840      8843      8845      8840      8843      8846
      8844      8843      8845      8844      8843      8846      8845      8843      8846
      8843      8846      8847      8843      8846      8848      8843      8846      8849
      8847      8846      8848      8847      8846      8849      8848      8846      8849
      8846      8849      8850      8846      8849      8851      8846      8849      8852
      8850      8849      8851      8850      8849      8852      8851      8849      8852
      8849      8852      8853      8849      8852      8854      8849      8852      8855
      8853      8852      8854      8853      8852      8855      8854      8852      8855
      8852      8855      8856      8852      8855      8857      8852      8855      8858
      8856      8855      8857      8856      8855      8858      8857      8855      8858
      8855      8858      8859      8855      8858      8860      8855      8858      8861
      8859      8858      8860      8859      8858      8861      8860      8858      8861
      8858      8861      8862      8858      8861      8863      8858      8861      8864
      8862      8861      8863      8862      8861      8864      8863      8861      8864
      8861      8864      8865      8861      8864      8866      8861      8864      8867
      8865      8864      8866      8865      8864      8867      8866      8864      8867
      8864      8867      8868      8864      8867      8869      8864      8867      8870
      8868      8867      8869      8868      8867      8870      8869      8867      8870
      8867      8870      8871      8867      8870      8872      8867      8870      8873
      8871      8870      8872      8871      8870      8873      8872      8870      8873
      8870      8873      8874      8870      8873      8875      8870      8873      8876
      8874      8873      8875      8874      8873      8876      8875      8873      8876
      8873      8876      8877      8873      8876      8878      8873      8876      8879
      8877      8876      8878      8877      8876      8879      8878      8876      8879
      8876      8879      8880      8876      8879      8881      8876      8879      8882
      8880      8879      8881      8880      8879      8882      8881      8879      8882
      8884      8883      8887      8884      8883      8891      8884      8883      8895
      8887      8883      8891      8887      8883      8895      8891      8883      8895
      8883      8884      8885      8883      8884      8886      8883      8884      8899
      8885      8884      8886      8885      8884      8899      8886      8884      8899
      8883      8887      8888      8883      8887      8889      8883      8887      8890
      8888      8887      8889      8888      8887      8890      8889      8887      8890
      8883      8891      8892      8883      8891      8893      8883      8891      8894
      8892      8891      8893      8892      8891      8894      8893      8891      8894
      8883      8895      8896      8883      8895      8897      8883      8895      8898
      8896      8895      8897      8896      8895      8898      8897      8895      8898
      8884      8899      8900      8884      8899      8901      8884      8899      8905
      8900      8899      8901      8900      8899      8905      8901      8899      8905
      8903      8902      8904      8903      8902      8905      8903      8902      8906
      8904      8902      8905      8904      8902      8906      8905      8902      8906
      8899      8905      8902      8902      8906      8907      8906      8907      8908
      8906      8907      8909      8906      8907      8910      8908      8907      8909
      8908      8907      8910      8909      8907      8910      8907      8910      8911
      8907      8910      8912      8907      8910      8918      8911      8910      8912
      8911      8910      8918      8912      8910      8918      8910      8912      8913
      8912      8913      8914      8912      8913      8915      8914      8913      8915
      8913      8915      8916      8913      8915      8917      8913      8915      8927
      8916      8915      8917      8916      8915      8927      8917      8915      8927
      8910      8918      8919      8910      8918      8920      8910      8918      8921
      8919      8918      8920      8919      8918      8921      8920      8918      8921
      8918      8921      8922      8921      8922      8923      8921      8922      8924
      8923      8922      8924      8922      8924      8925      8922      8924      8926
      8922      8924      8974      8925      8924      8926      8925      8924      8974
      8926      8924      8974      8915      8927      8928      8915      8927      8929
      8915      8927      8930      8928      8927      8929      8928      8927      8930
      8929      8927      8930      8927      8930      8931      8927      8930      8932
      8927      8930      8933      8931      8930      8932      8931      8930      8933
      8932      8930      8933      8930      8933      8934      8930      8933      8935
      8930      8933      8936      8934      8933      8935      8934      8933      8936
      8935      8933      8936      8933      8936      8937      8933      8936      8938
      8933      8936      8939      8937      8936      8938      8937      8936      8939
      8938      8936      8939      8936      8939      8940      8936      8939      8941
      8936      8939      8942      8940      8939      8941      8940      8939      8942
      8941      8939      8942      8939      8942      8943      8939      8942      8944
      8939      8942      8945      8943      8942      8944      8943      8942      8945
      8944      8942      8945      8942      8945      8946      8942      8945      8947
      8946      8945      8947      8945      8947      8948      8945      8947      8949
      8948      8947      8949      8947      8949      8950      8947      8949      8951
      8947      8949      8952      8950      8949      8951      8950      8949      8952
      8951      8949      8952      8949      8952      8953      8949      8952      8954
      8949      8952      8955      8953      8952      8954      8953      8952      8955
      8954      8952      8955      8952      8955      8956      8952      8955      8957
      8952      8955      8958      8956      8955      8957      8956      8955      8958
      8957      8955      8958      8955      8958      8959      8955      8958      8960
      8955      8958      8961      8959      8958      8960      8959      8958      8961
      8960      8958      8961      8958      8961      8962      8958      8961      8963
      8958      8961      8964      8962      8961      8963      8962      8961      8964
      8963      8961      8964      8961      8964      8965      8961      8964      8966
      8961      8964      8967      8965      8964      8966      8965      8964      8967
      8966      8964      8967      8964      8967      8968      8964      8967      8969
      8964      8967      8970      8968      8967      8969      8968      8967      8970
      8969      8967      8970      8967      8970      8971      8967      8970      8972
      8967      8970      8973      8971      8970      8972      8971      8970      8973
      8972      8970      8973      8924      8974      8975      8924      8974      8976
      8924      8974      8977      8975      8974      8976      8975      8974      8977
      8976      8974      8977      8974      8977      8978      8974      8977      8979
      8974      8977      8980      8978      8977      8979      8978      8977      8980
      8979      8977      8980      8977      8980      8981      8977      8980      8982
      8977      8980      8983      8981      8980      8982      8981      8980      8983
      8982      8980      8983      8980      8983      8984      8980      8983      8985
      8980      8983      8986      8984      8983      8985      8984      8983      8986
      8985      8983      8986      8983      8986      8987      8983      8986      8988
      8983      8986      8989      8987      8986      8988      8987      8986      8989
      8988      8986      8989      8986      8989      8990      8986      8989      8991
      8986      8989      8992      8990      8989      8991      8990      8989      8992
      8991      8989      8992      8989      8992      8993      8989      8992      8994
      8989      8992      8995      8993      8992      8994      8993      8992      8995
      8994      8992      8995      8992      8995      8996      8992      8995      8997
      8992      8995      8998      8996      8995      8997      8996      8995      8998
      8997      8995      8998      8995      8998      8999      8995      8998      9000
      8995      8998      9001      8999      8998      9000      8999      8998      9001
      9000      8998      9001      8998      9001      9002      8998      9001      9003
      8998      9001      9004      9002      9001      9003      9002      9001      9004
      9003      9001      9004      9001      9004      9005      9001      9004      9006
      9001      9004      9007      9005      9004      9006      9005      9004      9007
      9006      9004      9007      9004      9007      9008      9004      9007      9009
      9004      9007      9010      9008      9007      9009      9008      9007      9010
      9009      9007      9010      9007      9010      9011      9007      9010      9012
      9007      9010      9013      9011      9010      9012      9011      9010      9013
      9012      9010      9013      9010      9013      9014      9010      9013      9015
      9010      9013      9016      9014      9013      9015      9014      9013      9016
      9015      9013      9016      9018      9017      9021      9018      9017      9025
      9018      9017      9029      9021      9017      9025      9021      9017      9029
      9025      9017      9029      9017      9018      9019      9017      9018      9020
      9017      9018      9033      9019      9018      9020      9019      9018      9033
      9020      9018      9033      9017      9021      9022      9017      9021      9023
      9017      9021      9024      9022      9021      9023      9022      9021      9024
      9023      9021      9024      9017      9025      9026      9017      9025      9027
      9017      9025      9028      9026      9025      9027      9026      9025      9028
      9027      9025      9028      9017      9029      9030      9017      9029      9031
      9017      9029      9032      9030      9029      9031      9030      9029      9032
      9031      9029      9032      9018      9033      9034      9018      9033      9035
      9018      9033      9039      9034      9033      9035      9034      9033      9039
      9035      9033      9039      9037      9036      9038      9037      9036      9039
      9037      9036      9040      9038      9036      9039      9038      9036      9040
      9039      9036      9040      9033      9039      9036      9036      9040      9041
      9040      9041      9042      9040      9041      9043      9040      9041      9044
      9042      9041      9043      9042      9041      9044      9043      9041      9044
      9041      9044      9045      9041      9044      9046      9041      9044      9052
      9045      9044      9046      9045      9044      9052      9046      9044      9052
      9044      9046      9047      9046      9047      9048      9046      9047      9049
      9048      9047      9049      9047      9049      9050      9047      9049      9051
      9047      9049      9061      9050      9049      9051      9050      9049      9061
      9051      9049      9061      9044      9052      9053      9044      9052      9054
      9044      9052      9055      9053      9052      9054      9053      9052      9055
      9054      9052      9055      9052      9055      9056      9055      9056      9057
      9055      9056      9058      9057      9056      9058      9056      9058      9059
      9056      9058      9060      9056      9058      9108      9059      9058      9060
      9059      9058      9108      9060      9058      9108      9049      9061      9062
      9049      9061      9063      9049      9061      9064      9062      9061      9063
      9062      9061      9064      9063      9061      9064      9061      9064      9065
      9061      9064      9066      9061      9064      9067      9065      9064      9066
      9065      9064      9067      9066      9064      9067      9064      9067      9068
      9064      9067      9069      9064      9067      9070      9068      9067      9069
      9068      9067      9070      9069      9067      9070      9067      9070      9071
      9067      9070      9072      9067      9070      9073      9071      9070      9072
      9071      9070      9073      9072      9070      9073      9070      9073      9074
      9070      9073      9075      9070      9073      9076      9074      9073      9075
      9074      9073      9076      9075      9073      9076      9073      9076      9077
      9073      9076      9078      9073      9076      9079      9077      9076      9078
      9077      9076      9079      9078      9076      9079      9076      9079      9080
      9076      9079      9081      9080      9079      9081      9079      9081      9082
      9079      9081      9083      9082      9081      9083      9081      9083      9084
      9081      9083      9085      9081      9083      9086      9084      9083      9085
      9084      9083      9086      9085      9083      9086      9083      9086      9087
      9083      9086      9088      9083      9086      9089      9087      9086      9088
      9087      9086      9089      9088      9086      9089      9086      9089      9090
      9086      9089      9091      9086      9089      9092      9090      9089      9091
      9090      9089      9092      9091      9089      9092      9089      9092      9093
      9089      9092      9094      9089      9092      9095      9093      9092      9094
      9093      9092      9095      9094      9092      9095      9092      9095      9096
      9092      9095      9097      9092      9095      9098      9096      9095      9097
      9096      9095      9098      9097      9095      9098      9095      9098      9099
      9095      9098      9100      9095      9098      9101      9099      9098      9100
      9099      9098      9101      9100      9098      9101      9098      9101      9102
      9098      9101      9103      9098      9101      9104      9102      9101      9103
      9102      9101      9104      9103      9101      9104      9101      9104      9105
      9101      9104      9106      9101      9104      9107      9105      9104      9106
      9105      9104      9107      9106      9104      9107      9058      9108      9109
      9058      9108      9110      9058      9108      9111      9109      9108      9110
      9109      9108      9111      9110      9108      9111      9108      9111      9112
      9108      9111      9113      9108      9111      9114      9112      9111      9113
      9112      9111      9114      9113      9111      9114      9111      9114      9115
      9111      9114      9116      9111      9114      9117      9115      9114      9116
      9115      9114      9117      9116      9114      9117      9114      9117      9118
      9114      9117      9119      9114      9117      9120      9118      9117      9119
      9118      9117      9120      9119      9117      9120      9117      9120      9121
      9117      9120      9122      9117      9120      9123      9121      9120      9122
      9121      9120      9123      9122      9120      9123      9120      9123      9124
      9120      9123      9125      9120      9123      9126      9124      9123      9125
      9124      9123      9126      9125      9123      9126      9123      9126      9127
      9123      9126      9128      9123      9126      9129      9127      9126      9128
      9127      9126      9129      9128      9126      9129      9126      9129      9130
      9126      9129      9131      9126      9129      9132      9130      9129      9131
      9130      9129      9132      9131      9129      9132      9129      9132      9133
      9129      9132      9134      9129      9132      9135      9133      9132      9134
      9133      9132      9135      9134      9132      9135      9132      9135      9136
      9132      9135      9137      9132      9135      9138      9136      9135      9137
      9136      9135      9138      9137      9135      9138      9135      9138      9139
      9135      9138      9140      9135      9138      9141      9139      9138      9140
      9139      9138      9141      9140      9138      9141      9138      9141      9142
      9138      9141      9143      9138      9141      9144      9142      9141      9143
      9142      9141      9144      9143      9141      9144      9141      9144      9145
      9141      9144      9146      9141      9144      9147      9145      9144      9146
      9145      9144      9147      9146      9144      9147      9144      9147      9148
      9144      9147      9149      9144      9147      9150      9148      9147      9149
      9148      9147      9150      9149      9147      9150      9152      9151      9155
      9152      9151      9159      9152      9151      9163      9155      9151      9159
      9155      9151      9163      9159      9151      9163      9151      9152      9153
      9151      9152      9154      9151      9152      9167      9153      9152      9154
      9153      9152      9167      9154      9152      9167      9151      9155      9156
      9151      9155      9157      9151      9155      9158      9156      9155      9157
      9156      9155      9158      9157      9155      9158      9151      9159      9160
      9151      9159      9161      9151      9159      9162      9160      9159      9161
      9160      9159      9162      9161      9159      9162      9151      9163      9164
      9151      9163      9165      9151      9163      9166      9164      9163      9165
      9164      9163      9166      9165      9163      9166      9152      9167      9168
      9152      9167      9169      9152      9167      9173      9168      9167      9169
      9168      9167      9173      9169      9167      9173      9171      9170      9172
      9171      9170      9173      9171      9170      9174      9172      9170      9173
      9172      9170      9174      9173      9170      9174      9167      9173      9170
      9170      9174      9175      9174      9175      9176      9174      9175      9177
      9174      9175      9178      9176      9175      9177      9176      9175      9178
      9177      9175      9178      9175      9178      9179      9175      9178      9180
      9175      9178      9186      9179      9178      9180      9179      9178      9186
      9180      9178      9186      9178      9180      9181      9180      9181      9182
      9180      9181      9183      9182      9181      9183      9181      9183      9184
      9181      9183      9185      9181      9183      9195      9184      9183      9185
      9184      9183      9195      9185      9183      9195      9178      9186      9187
      9178      9186      9188      9178      9186      9189      9187      9186      9188
      9187      9186      9189      9188      9186      9189      9186      9189      9190
      9189      9190      9191      9189      9190      9192      9191      9190      9192
      9190      9192      9193      9190      9192      9194      9190      9192      9242
      9193      9192      9194      9193      9192      9242      9194      9192      9242
      9183      9195      9196      9183      9195      9197      9183      9195      9198
      9196      9195      9197      9196      9195      9198      9197      9195      9198
      9195      9198      9199      9195      9198      9200      9195      9198      9201
      9199      9198      9200      9199      9198      9201      9200      9198      9201
      9198      9201      9202      9198      9201      9203      9198      9201      9204
      9202      9201      9203      9202      9201      9204      9203      9201      9204
      9201      9204      9205      9201      9204      9206      9201      9204      9207
      9205      9204      9206      9205      9204      9207      9206      9204      9207
      9204      9207      9208      9204      9207      9209      9204      9207      9210
      9208      9207      9209      9208      9207      9210      9209      9207      9210
      9207      9210      9211      9207      9210      9212      9207      9210      9213
      9211      9210      9212      9211      9210      9213      9212      9210      9213
      9210      9213      9214      9210      9213      9215      9214      9213      9215
      9213      9215      9216      9213      9215      9217      9216      9215      9217
      9215      9217      9218      9215      9217      9219      9215      9217      9220
      9218      9217      9219      9218      9217      9220      9219      9217      9220
      9217      9220      9221      9217      9220      9222      9217      9220      9223
      9221      9220      9222      9221      9220      9223      9222      9220      9223
      9220      9223      9224      9220      9223      9225      9220      9223      9226
      9224      9223      9225      9224      9223      9226      9225      9223      9226
      9223      9226      9227      9223      9226      9228      9223      9226      9229
      9227      9226      9228      9227      9226      9229      9228      9226      9229
      9226      9229      9230      9226      9229      9231      9226      9229      9232
      9230      9229      9231      9230      9229      9232      9231      9229      9232
      9229      9232      9233      9229      9232      9234      9229      9232      9235
      9233      9232      9234      9233      9232      9235      9234      9232      9235
      9232      9235      9236      9232      9235      9237      9232      9235      9238
      9236      9235      9237      9236      9235      9238      9237      9235      9238
      9235      9238      9239      9235      9238      9240      9235      9238      9241
      9239      9238      9240      9239      9238      9241      9240      9238      9241
      9192      9242      9243      9192      9242      9244      9192      9242      9245
      9243      9242      9244      9243      9242      9245      9244      9242      9245
      9242      9245      9246      9242      9245      9247      9242      9245      9248
      9246      9245      9247      9246      9245      9248      9247      9245      9248
      9245      9248      9249      9245      9248      9250      9245      9248      9251
      9249      9248      9250      9249      9248      9251      9250      9248      9251
      9248      9251      9252      9248      9251      9253      9248      9251      9254
      9252      9251      9253      9252      9251      9254      9253      9251      9254
      9251      9254      9255      9251      9254      9256      9251      9254      9257
      9255      9254      9256      9255      9254      9257      9256      9254      9257
      9254      9257      9258      9254      9257      9259      9254      9257      9260
      9258      9257      9259      9258      9257      9260      9259      9257      9260
      9257      9260      9261      9257      9260      9262      9257      9260      9263
      9261      9260      9262      9261      9260      9263      9262      9260      9263
      9260      9263      9264      9260      9263      9265      9260      9263      9266
      9264      9263      9265      9264      9263      9266      9265      9263      9266
      9263      9266      9267      9263      9266      9268      9263      9266      9269
      9267      9266      9268      9267      9266      9269      9268      9266      9269
      9266      9269      9270      9266      9269      9271      9266      9269      9272
      9270      9269      9271      9270      9269      9272      9271      9269      9272
      9269      9272      9273      9269      9272      9274      9269      9272      9275
      9273      9272      9274      9273      9272      9275      9274      9272      9275
      9272      9275      9276      9272      9275      9277      9272      9275      9278
      9276      9275      9277      9276      9275      9278      9277      9275      9278
      9275      9278      9279      9275      9278      9280      9275      9278      9281
      9279      9278      9280      9279      9278      9281      9280      9278      9281
      9278      9281      9282      9278      9281      9283      9278      9281      9284
      9282      9281      9283      9282      9281      9284      9283      9281      9284
      9286      9285      9289      9286      9285      9293      9286      9285      9297
      9289      9285      9293      9289      9285      9297      9293      9285      9297
      9285      9286      9287      9285      9286      9288      9285      9286      9301
      9287      9286      9288      9287      9286      9301      9288      9286      9301
      9285      9289      9290      9285      9289      9291      9285      9289      9292
      9290      9289      9291      9290      9289      9292      9291      9289      9292
      9285      9293      9294      9285      9293      9295      9285      9293      9296
      9294      9293      9295      9294      9293      9296      9295      9293      9296
      9285      9297      9298      9285      9297      9299      9285      9297      9300
      9298      9297      9299      9298      9297      9300      9299      9297      9300
      9286      9301      9302      9286      9301      9303      9286      9301      9307
      9302      9301      9303      9302      9301      9307      9303      9301      9307
      9305      9304      9306      9305      9304      9307      9305      9304      9308
      9306      9304      9307      9306      9304      9308      9307      9304      9308
      9301      9307      9304      9304      9308      9309      9308      9309      9310
      9308      9309      9311      9308      9309      9312      9310      9309      9311
      9310      9309      9312      9311      9309      9312      9309      9312      9313
      9309      9312      9314      9309      9312      9320      9313      9312      9314
      9313      9312      9320      9314      9312      9320      9312      9314      9315
      9314      9315      9316      9314      9315      9317      9316      9315      9317
      9315      9317      9318      9315      9317      9319      9315      9317      9329
      9318      9317      9319      9318      9317      9329      9319      9317      9329
      9312      9320      9321      9312      9320      9322      9312      9320      9323
      9321      9320      9322      9321      9320      9323      9322      9320      9323
      9320      9323      9324      9323      9324      9325      9323      9324      9326
      9325      9324      9326      9324      9326      9327      9324      9326      9328
      9324      9326      9376      9327      9326      9328      9327      9326      9376
      9328      9326      9376      9317      9329      9330      9317      9329      9331
      9317      9329      9332      9330      9329      9331      9330      9329      9332
      9331      9329      9332      9329      9332      9333      9329      9332      9334
      9329      9332      9335      9333      9332      9334      9333      9332      9335
      9334      9332      9335      9332      9335      9336      9332      9335      9337
      9332      9335      9338      9336      9335      9337      9336      9335      9338
      9337      9335      9338      9335      9338      9339      9335      9338      9340
      9335      9338      9341      9339      9338      9340      9339      9338      9341
      9340      9338      9341      9338      9341      9342      9338      9341      9343
      9338      9341      9344      9342      9341      9343      9342      9341      9344
      9343      9341      9344      9341      9344      9345      9341      9344      9346
      9341      9344      9347      9345      9344      9346      9345      9344      9347
      9346      9344      9347      9344      9347      9348      9344      9347      9349
      9348      9347      9349      9347      9349      9350      9347      9349      9351
      9350      9349      9351      9349      9351      9352      9349      9351      9353
      9349      9351      9354      9352      9351      9353      9352      9351      9354
      9353      9351      9354      9351      9354      9355      9351      9354      9356
      9351      9354      9357      9355      9354      9356      9355      9354      9357
      9356      9354      9357      9354      9357      9358      9354      9357      9359
      9354      9357      9360      9358      9357      9359      9358      9357      9360
      9359      9357      9360      9357      9360      9361      9357      9360      9362
      9357      9360      9363      9361      9360      9362      9361      9360      9363
      9362      9360      9363      9360      9363      9364      9360      9363      9365
      9360      9363      9366      9364      9363      9365      9364      9363      9366
      9365      9363      9366      9363      9366      9367      9363      9366      9368
      9363      9366      9369      9367      9366      9368      9367      9366      9369
      9368      9366      9369      9366      9369      9370      9366      9369      9371
      9366      9369      9372      9370      9369      9371      9370      9369      9372
      9371      9369      9372      9369      9372      9373      9369      9372      9374
      9369      9372      9375      9373      9372      9374      9373      9372      9375
      9374      9372      9375      9326      9376      9377      9326      9376      9378
      9326      9376      9379      9377      9376      9378      9377      9376      9379
      9378      9376      9379      9376      9379      9380      9376      9379      9381
      9376      9379      9382      9380      9379      9381      9380      9379      9382
      9381      9379      9382      9379      9382      9383      9379      9382      9384
      9379      9382      9385      9383      9382      9384      9383      9382      9385
      9384      9382      9385      9382      9385      9386      9382      9385      9387
      9382      9385      9388      9386      9385      9387      9386      9385      9388
      9387      9385      9388      9385      9388      9389      9385      9388      9390
      9385      9388      9391      9389      9388      9390      9389      9388      9391
      9390      9388      9391      9388      9391      9392      9388      9391      9393
      9388      9391      9394      9392      9391      9393      9392      9391      9394
      9393      9391      9394      9391      9394      9395      9391      9394      9396
      9391      9394      9397      9395      9394      9396      9395      9394      9397
      9396      9394      9397      9394      9397      9398      9394      9397      9399
      9394      9397      9400      9398      9397      9399      9398      9397      9400
      9399      9397      9400      9397      9400      9401      9397      9400      9402
      9397      9400      9403      9401      9400      9402      9401      9400      9403
      9402      9400      9403      9400      9403      9404      9400      9403      9405
      9400      9403      9406      9404      9403      9405      9404      9403      9406
      9405      9403      9406      9403      9406      9407      9403      9406      9408
      9403      9406      9409      9407      9406      9408      9407      9406      9409
      9408      9406      9409      9406      9409      9410      9406      9409      9411
      9406      9409      9412      9410      9409      9411      9410      9409      9412
      9411      9409      9412      9409      9412      9413      9409      9412      9414
      9409      9412      9415      9413      9412      9414      9413      9412      9415
      9414      9412      9415      9412      9415      9416      9412      9415      9417
      9412      9415      9418      9416      9415      9417      9416      9415      9418
      9417      9415      9418      9420      9419      9423      9420      9419      9427
      9420      9419      9431      9423      9419      9427      9423      9419      9431
      9427      9419      9431      9419      9420      9421      9419      9420      9422
      9419      9420      9435      9421      9420      9422      9421      9420      9435
      9422      9420      9435      9419      9423      9424      9419      9423      9425
      9419      9423      9426      9424      9423      9425      9424      9423      9426
      9425      9423      9426      9419      9427      9428      9419      9427      9429
      9419      9427      9430      9428      9427      9429      9428      9427      9430
      9429      9427      9430      9419      9431      9432      9419      9431      9433
      9419      9431      9434      9432      9431      9433      9432      9431      9434
      9433      9431      9434      9420      9435      9436      9420      9435      9437
      9420      9435      9441      9436      9435      9437      9436      9435      9441
      9437      9435      9441      9439      9438      9440      9439      9438      9441
      9439      9438      9442      9440      9438      9441      9440      9438      9442
      9441      9438      9442      9435      9441      9438      9438      9442      9443
      9442      9443      9444      9442      9443      9445      9442      9443      9446
      9444      9443      9445      9444      9443      9446      9445      9443      9446
      9443      9446      9447      9443      9446      9448      9443      9446      9454
      9447      9446      9448      9447      9446      9454      9448      9446      9454
      9446      9448      9449      9448      9449      9450      9448      9449      9451
      9450      9449      9451      9449      9451      9452      9449      9451      9453
      9449      9451      9463      9452      9451      9453      9452      9451      9463
      9453      9451      9463      9446      9454      9455      9446      9454      9456
      9446      9454      9457      9455      9454      9456      9455      9454      9457
      9456      9454      9457      9454      9457      9458      9457      9458      9459
      9457      9458      9460      9459      9458      9460      9458      9460      9461
      9458      9460      9462      9458      9460      9510      9461      9460      9462
      9461      9460      9510      9462      9460      9510      9451      9463      9464
      9451      9463      9465      9451      9463      9466      9464      9463      9465
      9464      9463      9466      9465      9463      9466      9463      9466      9467
      9463      9466      9468      9463      9466      9469      9467      9466      9468
      9467      9466      9469      9468      9466      9469      9466      9469      9470
      9466      9469      9471      9466      9469      9472      9470      9469      9471
      9470      9469      9472      9471      9469      9472      9469      9472      9473
      9469      9472      9474      9469      9472      9475      9473      9472      9474
      9473      9472      9475      9474      9472      9475      9472      9475      9476
      9472      9475      9477      9472      9475      9478      9476      9475      9477
      9476      9475      9478      9477      9475      9478      9475      9478      9479
      9475      9478      9480      9475      9478      9481      9479      9478      9480
      9479      9478      9481      9480      9478      9481      9478      9481      9482
      9478      9481      9483      9482      9481      9483      9481      9483      9484
      9481      9483      9485      9484      9483      9485      9483      9485      9486
      9483      9485      9487      9483      9485      9488      9486      9485      9487
      9486      9485      9488      9487      9485      9488      9485      9488      9489
      9485      9488      9490      9485      9488      9491      9489      9488      9490
      9489      9488      9491      9490      9488      9491      9488      9491      9492
      9488      9491      9493      9488      9491      9494      9492      9491      9493
      9492      9491      9494      9493      9491      9494      9491      9494      9495
      9491      9494      9496      9491      9494      9497      9495      9494      9496
      9495      9494      9497      9496      9494      9497      9494      9497      9498
      9494      9497      9499      9494      9497      9500      9498      9497      9499
      9498      9497      9500      9499      9497      9500      9497      9500      9501
      9497      9500      9502      9497      9500      9503      9501      9500      9502
      9501      9500      9503      9502      9500      9503      9500      9503      9504
      9500      9503      9505      9500      9503      9506      9504      9503      9505
      9504      9503      9506      9505      9503      9506      9503      9506      9507
      9503      9506      9508      9503      9506      9509      9507      9506      9508
      9507      9506      9509      9508      9506      9509      9460      9510      9511
      9460      9510      9512      9460      9510      9513      9511      9510      9512
      9511      9510      9513      9512      9510      9513      9510      9513      9514
      9510      9513      9515      9510      9513      9516      9514      9513      9515
      9514      9513      9516      9515      9513      9516      9513      9516      9517
      9513      9516      9518      9513      9516      9519      9517      9516      9518
      9517      9516      9519      9518      9516      9519      9516      9519      9520
      9516      9519      9521      9516      9519      9522      9520      9519      9521
      9520      9519      9522      9521      9519      9522      9519      9522      9523
      9519      9522      9524      9519      9522      9525      9523      9522      9524
      9523      9522      9525      9524      9522      9525      9522      9525      9526
      9522      9525      9527      9522      9525      9528      9526      9525      9527
      9526      9525      9528      9527      9525      9528      9525      9528      9529
      9525      9528      9530      9525      9528      9531      9529      9528      9530
      9529      9528      9531      9530      9528      9531      9528      9531      9532
      9528      9531      9533      9528      9531      9534      9532      9531      9533
      9532      9531      9534      9533      9531      9534      9531      9534      9535
      9531      9534      9536      9531      9534      9537      9535      9534      9536
      9535      9534      9537      9536      9534      9537      9534      9537      9538
      9534      9537      9539      9534      9537      9540      9538      9537      9539
      9538      9537      9540      9539      9537      9540      9537      9540      9541
      9537      9540      9542      9537      9540      9543      9541      9540      9542
      9541      9540      9543      9542      9540      9543      9540      9543      9544
      9540      9543      9545      9540      9543      9546      9544      9543      9545
      9544      9543      9546      9545      9543      9546      9543      9546      9547
      9543      9546      9548      9543      9546      9549      9547      9546      9548
      9547      9546      9549      9548      9546      9549      9546      9549      9550
      9546      9549      9551      9546      9549      9552      9550      9549      9551
      9550      9549      9552      9551      9549      9552      9554      9553      9555
      9554      9553      9556      9554      9553      9557      9555      9553      9556
      9555      9553      9557      9556      9553      9557      9553      9557      9558
      9553      9557      9559      9553      9557      9562      9558      9557      9559
      9558      9557      9562      9559      9557      9562      9557      9559      9560
      9557      9559      9561      9560      9559      9561      9557      9562      9563
      9557      9562      9564      9557      9562      9568      9563      9562      9564
      9563      9562      9568      9564      9562      9568      9566      9565      9567
      9566      9565      9568      9566      9565      9569      9567      9565      9568
      9567      9565      9569      9568      9565      9569      9562      9568      9565
      9565      9569      9570      9569      9570      9571      9569      9570      9572
      9569      9570      9573      9571      9570      9572      9571      9570      9573
      9572      9570      9573      9570      9573      9574      9570      9573      9575
      9570      9573      9581      9574      9573      9575      9574      9573      9581
      9575      9573      9581      9573      9575      9576      9575      9576      9577
      9575      9576      9578      9577      9576      9578      9576      9578      9579
      9576      9578      9580      9576      9578      9590      9579      9578      9580
      9579      9578      9590      9580      9578      9590      9573      9581      9582
      9573      9581      9583      9573      9581      9584      9582      9581      9583
      9582      9581      9584      9583      9581      9584      9581      9584      9585
      9584      9585      9586      9584      9585      9587      9586      9585      9587
      9585      9587      9588      9585      9587      9589      9585      9587      9637
      9588      9587      9589      9588      9587      9637      9589      9587      9637
      9578      9590      9591      9578      9590      9592      9578      9590      9593
      9591      9590      9592      9591      9590      9593      9592      9590      9593
      9590      9593      9594      9590      9593      9595      9590      9593      9596
      9594      9593      9595      9594      9593      9596      9595      9593      9596
      9593      9596      9597      9593      9596      9598      9593      9596      9599
      9597      9596      9598      9597      9596      9599      9598      9596      9599
      9596      9599      9600      9596      9599      9601      9596      9599      9602
      9600      9599      9601      9600      9599      9602      9601      9599      9602
      9599      9602      9603      9599      9602      9604      9599      9602      9605
      9603      9602      9604      9603      9602      9605      9604      9602      9605
      9602      9605      9606      9602      9605      9607      9602      9605      9608
      9606      9605      9607      9606      9605      9608      9607      9605      9608
      9605      9608      9609      9605      9608      9610      9609      9608      9610
      9608      9610      9611      9608      9610      9612      9611      9610      9612
      9610      9612      9613      9610      9612      9614      9610      9612      9615
      9613      9612      9614      9613      9612      9615      9614      9612      9615
      9612      9615      9616      9612      9615      9617      9612      9615      9618
      9616      9615      9617      9616      9615      9618      9617      9615      9618
      9615      9618      9619      9615      9618      9620      9615      9618      9621
      9619      9618      9620      9619      9618      9621      9620      9618      9621
      9618      9621      9622      9618      9621      9623      9618      9621      9624
      9622      9621      9623      9622      9621      9624      9623      9621      9624
      9621      9624      9625      9621      9624      9626      9621      9624      9627
      9625      9624      9626      9625      9624      9627      9626      9624      9627
      9624      9627      9628      9624      9627      9629      9624      9627      9630
      9628      9627      9629      9628      9627      9630      9629      9627      9630
      9627      9630      9631      9627      9630      9632      9627      9630      9633
      9631      9630      9632      9631      9630      9633      9632      9630      9633
      9630      9633      9634      9630      9633      9635      9630      9633      9636
      9634      9633      9635      9634      9633      9636      9635      9633      9636
      9587      9637      9638      9587      9637      9639      9587      9637      9640
      9638      9637      9639      9638      9637      9640      9639      9637      9640
      9637      9640      9641      9637      9640      9642      9637      9640      9643
      9641      9640      9642      9641      9640      9643      9642      9640      9643
      9640      9643      9644      9640      9643      9645      9640      9643      9646
      9644      9643      9645      9644      9643      9646      9645      9643      9646
      9643      9646      9647      9643      9646      9648      9643      9646      9649
      9647      9646      9648      9647      9646      9649      9648      9646      9649
      9646      9649      9650      9646      9649      9651      9646      9649      9652
      9650      9649      9651      9650      9649      9652      9651      9649      9652
      9649      9652      9653      9649      9652      9654      9649      9652      9655
      9653      9652      9654      9653      9652      9655      9654      9652      9655
      9652      9655      9656      9652      9655      9657      9652      9655      9658
      9656      9655      9657      9656      9655      9658      9657      9655      9658
      9655      9658      9659      9655      9658      9660      9655      9658      9661
      9659      9658      9660      9659      9658      9661      9660      9658      9661
      9658      9661      9662      9658      9661      9663      9658      9661      9664
      9662      9661      9663      9662      9661      9664      9663      9661      9664
      9661      9664      9665      9661      9664      9666      9661      9664      9667
      9665      9664      9666      9665      9664      9667      9666      9664      9667
      9664      9667      9668      9664      9667      9669      9664      9667      9670
      9668      9667      9669      9668      9667      9670      9669      9667      9670
      9667      9670      9671      9667      9670      9672      9667      9670      9673
      9671      9670      9672      9671      9670      9673      9672      9670      9673
      9670      9673      9674      9670      9673      9675      9670      9673      9676
      9674      9673      9675      9674      9673      9676      9675      9673      9676
      9673      9676      9677      9673      9676      9678      9673      9676      9679
      9677      9676      9678      9677      9676      9679      9678      9676      9679
      9681      9680      9684      9681      9680      9688      9681      9680      9692
      9684      9680      9688      9684      9680      9692      9688      9680      9692
      9680      9681      9682      9680      9681      9683      9680      9681      9696
      9682      9681      9683      9682      9681      9696      9683      9681      9696
      9680      9684      9685      9680      9684      9686      9680      9684      9687
      9685      9684      9686      9685      9684      9687      9686      9684      9687
      9680      9688      9689      9680      9688      9690      9680      9688      9691
      9689      9688      9690      9689      9688      9691      9690      9688      9691
      9680      9692      9693      9680      9692      9694      9680      9692      9695
      9693      9692      9694      9693      9692      9695      9694      9692      9695
      9681      9696      9697      9681      9696      9698      9681      9696      9702
      9697      9696      9698      9697      9696      9702      9698      9696      9702
      9700      9699      9701      9700      9699      9702      9700      9699      9703
      9701      9699      9702      9701      9699      9703      9702      9699      9703
      9696      9702      9699      9699      9703      9704      9703      9704      9705
      9703      9704      9706      9703      9704      9707      9705      9704      9706
      9705      9704      9707      9706      9704      9707      9704      9707      9708
      9704      9707      9709      9704      9707      9715      9708      9707      9709
      9708      9707      9715      9709      9707      9715      9707      9709      9710
      9709      9710      9711      9709      9710      9712      9711      9710      9712
      9710      9712      9713      9710      9712      9714      9710      9712      9724
      9713      9712      9714      9713      9712      9724      9714      9712      9724
      9707      9715      9716      9707      9715      9717      9707      9715      9718
      9716      9715      9717      9716      9715      9718      9717      9715      9718
      9715      9718      9719      9718      9719      9720      9718      9719      9721
      9720      9719      9721      9719      9721      9722      9719      9721      9723
      9719      9721      9771      9722      9721      9723      9722      9721      9771
      9723      9721      9771      9712      9724      9725      9712      9724      9726
      9712      9724      9727      9725      9724      9726      9725      9724      9727
      9726      9724      9727      9724      9727      9728      9724      9727      9729
      9724      9727      9730      9728      9727      9729      9728      9727      9730
      9729      9727      9730      9727      9730      9731      9727      9730      9732
      9727      9730      9733      9731      9730      9732      9731      9730      9733
      9732      9730      9733      9730      9733      9734      9730      9733      9735
      9730      9733      9736      9734      9733      9735      9734      9733      9736
      9735      9733      9736      9733      9736      9737      9733      9736      9738
      9733      9736      9739      9737      9736      9738      9737      9736      9739
      9738      9736      9739      9736      9739      9740      9736      9739      9741
      9736      9739      9742      9740      9739      9741      9740      9739      9742
      9741      9739      9742      9739      9742      9743      9739      9742      9744
      9743      9742      9744      9742      9744      9745      9742      9744      9746
      9745      9744      9746      9744      9746      9747      9744      9746      9748
      9744      9746      9749      9747      9746      9748      9747      9746      9749
      9748      9746      9749      9746      9749      9750      9746      9749      9751
      9746      9749      9752      9750      9749      9751      9750      9749      9752
      9751      9749      9752      9749      9752      9753      9749      9752      9754
      9749      9752      9755      9753      9752      9754      9753      9752      9755
      9754      9752      9755      9752      9755      9756      9752      9755      9757
      9752      9755      9758      9756      9755      9757      9756      9755      9758
      9757      9755      9758      9755      9758      9759      9755      9758      9760
      9755      9758      9761      9759      9758      9760      9759      9758      9761
      9760      9758      9761      9758      9761      9762      9758      9761      9763
      9758      9761      9764      9762      9761      9763      9762      9761      9764
      9763      9761      9764      9761      9764      9765      9761      9764      9766
      9761      9764      9767      9765      9764      9766      9765      9764      9767
      9766      9764      9767      9764      9767      9768      9764      9767      9769
      9764      9767      9770      9768      9767      9769      9768      9767      9770
      9769      9767      9770      9721      9771      9772      9721      9771      9773
      9721      9771      9774      9772      9771      9773      9772      9771      9774
      9773      9771      9774      9771      9774      9775      9771      9774      9776
      9771      9774      9777      9775      9774      9776      9775      9774      9777
      9776      9774      9777      9774      9777      9778      9774      9777      9779
      9774      9777      9780      9778      9777      9779      9778      9777      9780
      9779      9777      9780      9777      9780      9781      9777      9780      9782
      9777      9780      9783      9781      9780      9782      9781      9780      9783
      9782      9780      9783      9780      9783      9784      9780      9783      9785
      9780      9783      9786      9784      9783      9785      9784      9783      9786
      9785      9783      9786      9783      9786      9787      9783      9786      9788
      9783      9786      9789      9787      9786      9788      9787      9786      9789
      9788      9786      9789      9786      9789      9790      9786      9789      9791
      9786      9789      9792      9790      9789      9791      9790      9789      9792
      9791      9789      9792      9789      9792      9793      9789      9792      9794
      9789      9792      9795      9793      9792      9794      9793      9792      9795
      9794      9792      9795      9792      9795      9796      9792      9795      9797
      9792      9795      9798      9796      9795      9797      9796      9795      9798
      9797      9795      9798      9795      9798      9799      9795      9798      9800
      9795      9798      9801      9799      9798      9800      9799      9798      9801
      9800      9798      9801      9798      9801      9802      9798      9801      9803
      9798      9801      9804      9802      9801      9803      9802      9801      9804
      9803      9801      9804      9801      9804      9805      9801      9804      9806
      9801      9804      9807      9805      9804      9806      9805      9804      9807
      9806      9804      9807      9804      9807      9808      9804      9807      9809
      9804      9807      9810      9808      9807      9809      9808      9807      9810
      9809      9807      9810      9807      9810      9811      9807      9810      9812
      9807      9810      9813      9811      9810      9812      9811      9810      9813
      9812      9810      9813      9815      9814      9818      9815      9814      9822
      9815      9814      9826      9818      9814      9822      9818      9814      9826
      9822      9814      9826      9814      9815      9816      9814      9815      9817
      9814      9815      9830      9816      9815      9817      9816      9815      9830
      9817      9815      9830      9814      9818      9819      9814      9818      9820
      9814      9818      9821      9819      9818      9820      9819      9818      9821
      9820      9818      9821      9814      9822      9823      9814      9822      9824
      9814      9822      9825      9823      9822      9824      9823      9822      9825
      9824      9822      9825      9814      9826      9827      9814      9826      9828
      9814      9826      9829      9827      9826      9828      9827      9826      9829
      9828      9826      9829      9815      9830      9831      9815      9830      9832
      9815      9830      9836      9831      9830      9832      9831      9830      9836
      9832      9830      9836      9834      9833      9835      9834      9833      9836
      9834      9833      9837      9835      9833      9836      9835      9833      9837
      9836      9833      9837      9830      9836      9833      9833      9837      9838
      9837      9838      9839      9837      9838      9840      9837      9838      9841
      9839      9838      9840      9839      9838      9841      9840      9838      9841
      9838      9841      9842      9838      9841      9843      9838      9841      9849
      9842      9841      9843      9842      9841      9849      9843      9841      9849
      9841      9843      9844      9843      9844      9845      9843      9844      9846
      9845      9844      9846      9844      9846      9847      9844      9846      9848
      9844      9846      9858      9847      9846      9848      9847      9846      9858
      9848      9846      9858      9841      9849      9850      9841      9849      9851
      9841      9849      9852      9850      9849      9851      9850      9849      9852
      9851      9849      9852      9849      9852      9853      9852      9853      9854
      9852      9853      9855      9854      9853      9855      9853      9855      9856
      9853      9855      9857      9853      9855      9905      9856      9855      9857
      9856      9855      9905      9857      9855      9905      9846      9858      9859
      9846      9858      9860      9846      9858      9861      9859      9858      9860
      9859      9858      9861      9860      9858      9861      9858      9861      9862
      9858      9861      9863      9858      9861      9864      9862      9861      9863
      9862      9861      9864      9863      9861      9864      9861      9864      9865
      9861      9864      9866      9861      9864      9867      9865      9864      9866
      9865      9864      9867      9866      9864      9867      9864      9867      9868
      9864      9867      9869      9864      9867      9870      9868      9867      9869
      9868      9867      9870      9869      9867      9870      9867      9870      9871
      9867      9870      9872      9867      9870      9873      9871      9870      9872
      9871      9870      9873      9872      9870      9873      9870      9873      9874
      9870      9873      9875      9870      9873      9876      9874      9873      9875
      9874      9873      9876      9875      9873      9876      9873      9876      9877
      9873      9876      9878      9877      9876      9878      9876      9878      9879
      9876      9878      9880      9879      9878      9880      9878      9880      9881
      9878      9880      9882      9878      9880      9883      9881      9880      9882
      9881      9880      9883      9882      9880      9883      9880      9883      9884
      9880      9883      9885      9880      9883      9886      9884      9883      9885
      9884      9883      9886      9885      9883      9886      9883      9886      9887
      9883      9886      9888      9883      9886      9889      9887      9886      9888
      9887      9886      9889      9888      9886      9889      9886      9889      9890
      9886      9889      9891      9886      9889      9892      9890      9889      9891
      9890      9889      9892      9891      9889      9892      9889      9892      9893
      9889      9892      9894      9889      9892      9895      9893      9892      9894
      9893      9892      9895      9894      9892      9895      9892      9895      9896
      9892      9895      9897      9892      9895      9898      9896      9895      9897
      9896      9895      9898      9897      9895      9898      9895      9898      9899
      9895      9898      9900      9895      9898      9901      9899      9898      9900
      9899      9898      9901      9900      9898      9901      9898      9901      9902
      9898      9901      9903      9898      9901      9904      9902      9901      9903
      9902      9901      9904      9903      9901      9904      9855      9905      9906
      9855      9905      9907      9855      9905      9908      9906      9905      9907
      9906      9905      9908      9907      9905      9908      9905      9908      9909
      9905      9908      9910      9905      9908      9911      9909      9908      9910
      9909      9908      9911      9910      9908      9911      9908      9911      9912
      9908      9911      9913      9908      9911      9914      9912      9911      9913
      9912      9911      9914      9913      9911      9914      9911      9914      9915
      9911      9914      9916      9911      9914      9917      9915      9914      9916
      9915      9914      9917      9916      9914      9917      9914      9917      9918
      9914      9917      9919      9914      9917      9920      9918      9917      9919
      9918      9917      9920      9919      9917      9920      9917      9920      9921
      9917      9920      9922      9917      9920      9923      9921      9920      9922
      9921      9920      9923      9922      9920      9923      9920      9923      9924
      9920      9923      9925      9920      9923      9926      9924      9923      9925
      9924      9923      9926      9925      9923      9926      9923      9926      9927
      9923      9926      9928      9923      9926      9929      9927      9926      9928
      9927      9926      9929      9928      9926      9929      9926      9929      9930
      9926      9929      9931      9926      9929      9932      9930      9929      9931
      9930      9929      9932      9931      9929      9932      9929      9932      9933
      9929      9932      9934      9929      9932      9935      9933      9932      9934
      9933      9932      9935      9934      9932      9935      9932      9935      9936
      9932      9935      9937      9932      9935      9938      9936      9935      9937
      9936      9935      9938      9937      9935      9938      9935      9938      9939
      9935      9938      9940      9935      9938      9941      9939      9938      9940
      9939      9938      9941      9940      9938      9941      9938      9941      9942
      9938      9941      9943      9938      9941      9944      9942      9941      9943
      9942      9941      9944      9943      9941      9944      9941      9944      9945
      9941      9944      9946      9941      9944      9947      9945      9944      9946
      9945      9944      9947      9946      9944      9947      9949      9948      9952
      9949      9948      9956      9949      9948      9960      9952      9948      9956
      9952      9948      9960      9956      9948      9960      9948      9949      9950
      9948      9949      9951      9948      9949      9964      9950      9949      9951
      9950      9949      9964      9951      9949      9964      9948      9952      9953
      9948      9952      9954      9948      9952      9955      9953      9952      9954
      9953      9952      9955      9954      9952      9955      9948      9956      9957
      9948      9956      9958      9948      9956      9959      9957      9956      9958
      9957      9956      9959      9958      9956      9959      9948      9960      9961
      9948      9960      9962      9948      9960      9963      9961      9960      9962
      9961      9960      9963      9962      9960      9963      9949      9964      9965
      9949      9964      9966      9949      9964      9970      9965      9964      9966
      9965      9964      9970      9966      9964      9970      9968      9967      9969
      9968      9967      9970      9968      9967      9971      9969      9967      9970
      9969      9967      9971      9970      9967      9971      9964      9970      9967
      9967      9971      9972      9971      9972      9973      9971      9972      9974
      9971      9972      9975      9973      9972      9974      9973      9972      9975
      9974      9972      9975      9972      9975      9976      9972      9975      9977
      9972      9975      9983      9976      9975      9977      9976      9975      9983
      9977      9975      9983      9975      9977      9978      9977      9978      9979
      9977      9978      9980      9979      9978      9980      9978      9980      9981
      9978      9980      9982      9978      9980      9992      9981      9980      9982
      9981      9980      9992      9982      9980      9992      9975      9983      9984
      9975      9983      9985      9975      9983      9986      9984      9983      9985
      9984      9983      9986      9985      9983      9986      9983      9986      9987
      9986      9987      9988      9986      9987      9989      9988      9987      9989
      9987      9989      9990      9987      9989      9991      9987      9989     10039
      9990      9989      9991      9990      9989     10039      9991      9989     10039
      9980      9992      9993      9980      9992      9994      9980      9992      9995
      9993      9992      9994      9993      9992      9995      9994      9992      9995
      9992      9995      9996      9992      9995      9997      9992      9995      9998
      9996      9995      9997      9996      9995      9998      9997      9995      9998
      9995      9998      9999      9995      9998     10000      9995      9998     10001
      9999      9998     10000      9999      9998     10001     10000      9998     10001
      9998     10001     10002      9998     10001     10003      9998     10001     10004
     10002     10001     10003     10002     10001     10004     10003     10001     10004
     10001     10004     10005     10001     10004     10006     10001     10004     10007
     10005     10004     10006     10005     10004     10007     10006     10004     10007
     10004     10007     10008     10004     10007     10009     10004     10007     10010
     10008     10007     10009     10008     10007     10010     10009     10007     10010
     10007     10010     10011     10007     10010     10012     10011     10010     10012
     10010     10012     10013     10010     10012     10014     10013     10012     10014
     10012     10014     10015     10012     10014     10016     10012     10014     10017
     10015     10014     10016     10015     10014     10017     10016     10014     10017
     10014     10017     10018     10014     10017     10019     10014     10017     10020
     10018     10017     10019     10018     10017     10020     10019     10017     10020
     10017     10020     10021     10017     10020     10022     10017     10020     10023
     10021     10020     10022     10021     10020     10023     10022     10020     10023
     10020     10023     10024     10020     10023     10025     10020     10023     10026
     10024     10023     10025     10024     10023     10026     10025     10023     10026
     10023     10026     10027     10023     10026     10028     10023     10026     10029
     10027     10026     10028     10027     10026     10029     10028     10026     10029
     10026     10029     10030     10026     10029     10031     10026     10029     10032
     10030     10029     10031     10030     10029     10032     10031     10029     10032
     10029     10032     10033     10029     10032     10034     10029     10032     10035
     10033     10032     10034     10033     10032     10035     10034     10032     10035
     10032     10035     10036     10032     10035     10037     10032     10035     10038
     10036     10035     10037     10036     10035     10038     10037     10035     10038
      9989     10039     10040      9989     10039     10041      9989     10039     10042
     10040     10039     10041     10040     10039     10042     10041     10039     10042
     10039     10042     10043     10039     10042     10044     10039     10042     10045
     10043     10042     10044     10043     10042     10045     10044     10042     10045
     10042     10045     10046     10042     10045     10047     10042     10045     10048
     10046     10045     10047     10046     10045     10048     10047     10045     10048
     10045     10048     10049     10045     10048     10050     10045     10048     10051
     10049     10048     10050     10049     10048     10051     10050     10048     10051
     10048     10051     10052     10048     10051     10053     10048     10051     10054
     10052     10051     10053     10052     10051     10054     10053     10051     10054
     10051     10054     10055     10051     10054     10056     10051     10054     10057
     10055     10054     10056     10055     10054     10057     10056     10054     10057
     10054     10057     10058     10054     10057     10059     10054     10057     10060
     10058     10057     10059     10058     10057     10060     10059     10057     10060
     10057     10060     10061     10057     10060     10062     10057     10060     10063
     10061     10060     10062     10061     10060     10063     10062     10060     10063
     10060     10063     10064     10060     10063     10065     10060     10063     10066
     10064     10063     10065     10064     10063     10066     10065     10063     10066
     10063     10066     10067     10063     10066     10068     10063     10066     10069
     10067     10066     10068     10067     10066     10069     10068     10066     10069
     10066     10069     10070     10066     10069     10071     10066     10069     10072
     10070     10069     10071     10070     10069     10072     10071     10069     10072
     10069     10072     10073     10069     10072     10074     10069     10072     10075
     10073     10072     10074     10073     10072     10075     10074     10072     10075
     10072     10075     10076     10072     10075     10077     10072     10075     10078
     10076     10075     10077     10076     10075     10078     10077     10075     10078
     10075     10078     10079     10075     10078     10080     10075     10078     10081
     10079     10078     10080     10079     10078     10081     10080     10078     10081
     10083     10082     10086     10083     10082     10090     10083     10082     10094
     10086     10082     10090     10086     10082     10094     10090     10082     10094
     10082     10083     10084     10082     10083     10085     10082     10083     10098
     10084     10083     10085     10084     10083     10098     10085     10083     10098
     10082     10086     10087     10082     10086     10088     10082     10086     10089
     10087     10086     10088     10087     10086     10089     10088     10086     10089
     10082     10090     10091     10082     10090     10092     10082     10090     10093
     10091     10090     10092     10091     10090     10093     10092     10090     10093
     10082     10094     10095     10082     10094     10096     10082     10094     10097
     10095     10094     10096     10095     10094     10097     10096     10094     10097
     10083     10098     10099     10083     10098     10100     10083     10098     10104
     10099     10098     10100     10099     10098     10104     10100     10098     10104
     10102     10101     10103     10102     10101     10104     10102     10101     10105
     10103     10101     10104     10103     10101     10105     10104     10101     10105
     10098     10104     10101     10101     10105     10106     10105     10106     10107
     10105     10106     10108     10105     10106     10109     10107     10106     10108
     10107     10106     10109     10108     10106     10109     10106     10109     10110
     10106     10109     10111     10106     10109     10117     10110     10109     10111
     10110     10109     10117     10111     10109     10117     10109     10111     10112
     10111     10112     10113     10111     10112     10114     10113     10112     10114
     10112     10114     10115     10112     10114     10116     10112     10114     10126
     10115     10114     10116     10115     10114     10126     10116     10114     10126
     10109     10117     10118     10109     10117     10119     10109     10117     10120
     10118     10117     10119     10118     10117     10120     10119     10117     10120
     10117     10120     10121     10120     10121     10122     10120     10121     10123
     10122     10121     10123     10121     10123     10124     10121     10123     10125
     10121     10123     10173     10124     10123     10125     10124     10123     10173
     10125     10123     10173     10114     10126     10127     10114     10126     10128
     10114     10126     10129     10127     10126     10128     10127     10126     10129
     10128     10126     10129     10126     10129     10130     10126     10129     10131
     10126     10129     10132     10130     10129     10131     10130     10129     10132
     10131     10129     10132     10129     10132     10133     10129     10132     10134
     10129     10132     10135     10133     10132     10134     10133     10132     10135
     10134     10132     10135     10132     10135     10136     10132     10135     10137
     10132     10135     10138     10136     10135     10137     10136     10135     10138
     10137     10135     10138     10135     10138     10139     10135     10138     10140
     10135     10138     10141     10139     10138     10140     10139     10138     10141
     10140     10138     10141     10138     10141     10142     10138     10141     10143
     10138     10141     10144     10142     10141     10143     10142     10141     10144
     10143     10141     10144     10141     10144     10145     10141     10144     10146
     10145     10144     10146     10144     10146     10147     10144     10146     10148
     10147     10146     10148     10146     10148     10149     10146     10148     10150
     10146     10148     10151     10149     10148     10150     10149     10148     10151
     10150     10148     10151     10148     10151     10152     10148     10151     10153
     10148     10151     10154     10152     10151     10153     10152     10151     10154
     10153     10151     10154     10151     10154     10155     10151     10154     10156
     10151     10154     10157     10155     10154     10156     10155     10154     10157
     10156     10154     10157     10154     10157     10158     10154     10157     10159
     10154     10157     10160     10158     10157     10159     10158     10157     10160
     10159     10157     10160     10157     10160     10161     10157     10160     10162
     10157     10160     10163     10161     10160     10162     10161     10160     10163
     10162     10160     10163     10160     10163     10164     10160     10163     10165
     10160     10163     10166     10164     10163     10165     10164     10163     10166
     10165     10163     10166     10163     10166     10167     10163     10166     10168
     10163     10166     10169     10167     10166     10168     10167     10166     10169
     10168     10166     10169     10166     10169     10170     10166     10169     10171
     10166     10169     10172     10170     10169     10171     10170     10169     10172
     10171     10169     10172     10123     10173     10174     10123     10173     10175
     10123     10173     10176     10174     10173     10175     10174     10173     10176
     10175     10173     10176     10173     10176     10177     10173     10176     10178
     10173     10176     10179     10177     10176     10178     10177     10176     10179
     10178     10176     10179     10176     10179     10180     10176     10179     10181
     10176     10179     10182     10180     10179     10181     10180     10179     10182
     10181     10179     10182     10179     10182     10183     10179     10182     10184
     10179     10182     10185     10183     10182     10184     10183     10182     10185
     10184     10182     10185     10182     10185     10186     10182     10185     10187
     10182     10185     10188     10186     10185     10187     10186     10185     10188
     10187     10185     10188     10185     10188     10189     10185     10188     10190
     10185     10188     10191     10189     10188     10190     10189     10188     10191
     10190     10188     10191     10188     10191     10192     10188     10191     10193
     10188     10191     10194     10192     10191     10193     10192     10191     10194
     10193     10191     10194     10191     10194     10195     10191     10194     10196
     10191     10194     10197     10195     10194     10196     10195     10194     10197
     10196     10194     10197     10194     10197     10198     10194     10197     10199
     10194     10197     10200     10198     10197     10199     10198     10197     10200
     10199     10197     10200     10197     10200     10201     10197     10200     10202
     10197     10200     10203     10201     10200     10202     10201     10200     10203
     10202     10200     10203     10200     10203     10204     10200     10203     10205
     10200     10203     10206     10204     10203     10205     10204     10203     10206
     10205     10203     10206     10203     10206     10207     10203     10206     10208
     10203     10206     10209     10207     10206     10208     10207     10206     10209
     10208     10206     10209     10206     10209     10210     10206     10209     10211
     10206     10209     10212     10210     10209     10211     10210     10209     10212
     10211     10209     10212     10209     10212     10213     10209     10212     10214
     10209     10212     10215     10213     10212     10214     10213     10212     10215
     10214     10212     10215     10217     10216     10218     10217     10216     10219
     10217     10216     10220     10218     10216     10219     10218     10216     10220
     10219     10216     10220     10216     10220     10221     10216     10220     10222
     10216     10220     10225     10221     10220     10222     10221     10220     10225
     10222     10220     10225     10220     10222     10223     10220     10222     10224
     10223     10222     10224     10220     10225     10226     10220     10225     10227
     10220     10225     10231     10226     10225     10227     10226     10225     10231
     10227     10225     10231     10229     10228     10230     10229     10228     10231
     10229     10228     10232     10230     10228     10231     10230     10228     10232
     10231     10228     10232     10225     10231     10228     10228     10232     10233
     10232     10233     10234     10232     10233     10235     10232     10233     10236
     10234     10233     10235     10234     10233     10236     10235     10233     10236
     10233     10236     10237     10233     10236     10238     10233     10236     10244
     10237     10236     10238     10237     10236     10244     10238     10236     10244
     10236     10238     10239     10238     10239     10240     10238     10239     10241
     10240     10239     10241     10239     10241     10242     10239     10241     10243
     10239     10241     10253     10242     10241     10243     10242     10241     10253
     10243     10241     10253     10236     10244     10245     10236     10244     10246
     10236     10244     10247     10245     10244     10246     10245     10244     10247
     10246     10244     10247     10244     10247     10248     10247     10248     10249
     10247     10248     10250     10249     10248     10250     10248     10250     10251
     10248     10250     10252     10248     10250     10300     10251     10250     10252
     10251     10250     10300     10252     10250     10300     10241     10253     10254
     10241     10253     10255     10241     10253     10256     10254     10253     10255
     10254     10253     10256     10255     10253     10256     10253     10256     10257
     10253     10256     10258     10253     10256     10259     10257     10256     10258
     10257     10256     10259     10258     10256     10259     10256     10259     10260
     10256     10259     10261     10256     10259     10262     10260     10259     10261
     10260     10259     10262     10261     10259     10262     10259     10262     10263
     10259     10262     10264     10259     10262     10265     10263     10262     10264
     10263     10262     10265     10264     10262     10265     10262     10265     10266
     10262     10265     10267     10262     10265     10268     10266     10265     10267
     10266     10265     10268     10267     10265     10268     10265     10268     10269
     10265     10268     10270     10265     10268     10271     10269     10268     10270
     10269     10268     10271     10270     10268     10271     10268     10271     10272
     10268     10271     10273     10272     10271     10273     10271     10273     10274
     10271     10273     10275     10274     10273     10275     10273     10275     10276
     10273     10275     10277     10273     10275     10278     10276     10275     10277
     10276     10275     10278     10277     10275     10278     10275     10278     10279
     10275     10278     10280     10275     10278     10281     10279     10278     10280
     10279     10278     10281     10280     10278     10281     10278     10281     10282
     10278     10281     10283     10278     10281     10284     10282     10281     10283
     10282     10281     10284     10283     10281     10284     10281     10284     10285
     10281     10284     10286     10281     10284     10287     10285     10284     10286
     10285     10284     10287     10286     10284     10287     10284     10287     10288
     10284     10287     10289     10284     10287     10290     10288     10287     10289
     10288     10287     10290     10289     10287     10290     10287     10290     10291
     10287     10290     10292     10287     10290     10293     10291     10290     10292
     10291     10290     10293     10292     10290     10293     10290     10293     10294
     10290     10293     10295     10290     10293     10296     10294     10293     10295
     10294     10293     10296     10295     10293     10296     10293     10296     10297
     10293     10296     10298     10293     10296     10299     10297     10296     10298
     10297     10296     10299     10298     10296     10299     10250     10300     10301
     10250     10300     10302     10250     10300     10303     10301     10300     10302
     10301     10300     10303     10302     10300     10303     10300     10303     10304
     10300     10303     10305     10300     10303     10306     10304     10303     10305
     10304     10303     10306     10305     10303     10306     10303     10306     10307
     10303     10306     10308     10303     10306     10309     10307     10306     10308
     10307     10306     10309     10308     10306     10309     10306     10309     10310
     10306     10309     10311     10306     10309     10312     10310     10309     10311
     10310     10309     10312     10311     10309     10312     10309     10312     10313
     10309     10312     10314     10309     10312     10315     10313     10312     10314
     10313     10312     10315     10314     10312     10315     10312     10315     10316
     10312     10315     10317     10312     10315     10318     10316     10315     10317
     10316     10315     10318     10317     10315     10318     10315     10318     10319
     10315     10318     10320     10315     10318     10321     10319     10318     10320
     10319     10318     10321     10320     10318     10321     10318     10321     10322
     10318     10321     10323     10318     10321     10324     10322     10321     10323
     10322     10321     10324     10323     10321     10324     10321     10324     10325
     10321     10324     10326     10321     10324     10327     10325     10324     10326
     10325     10324     10327     10326     10324     10327     10324     10327     10328
     10324     10327     10329     10324     10327     10330     10328     10327     10329
     10328     10327     10330     10329     10327     10330     10327     10330     10331
     10327     10330     10332     10327     10330     10333     10331     10330     10332
     10331     10330     10333     10332     10330     10333     10330     10333     10334
     10330     10333     10335     10330     10333     10336     10334     10333     10335
     10334     10333     10336     10335     10333     10336     10333     10336     10337
     10333     10336     10338     10333     10336     10339     10337     10336     10338
     10337     10336     10339     10338     10336     10339     10336     10339     10340
     10336     10339     10341     10336     10339     10342     10340     10339     10341
     10340     10339     10342     10341     10339     10342     10344     10343     10347
     10344     10343     10351     10344     10343     10355     10347     10343     10351
     10347     10343     10355     10351     10343     10355     10343     10344     10345
     10343     10344     10346     10343     10344     10359     10345     10344     10346
     10345     10344     10359     10346     10344     10359     10343     10347     10348
     10343     10347     10349     10343     10347     10350     10348     10347     10349
     10348     10347     10350     10349     10347     10350     10343     10351     10352
     10343     10351     10353     10343     10351     10354     10352     10351     10353
     10352     10351     10354     10353     10351     10354     10343     10355     10356
     10343     10355     10357     10343     10355     10358     10356     10355     10357
     10356     10355     10358     10357     10355     10358     10344     10359     10360
     10344     10359     10361     10344     10359     10365     10360     10359     10361
     10360     10359     10365     10361     10359     10365     10363     10362     10364
     10363     10362     10365     10363     10362     10366     10364     10362     10365
     10364     10362     10366     10365     10362     10366     10359     10365     10362
     10362     10366     10367     10366     10367     10368     10366     10367     10369
     10366     10367     10370     10368     10367     10369     10368     10367     10370
     10369     10367     10370     10367     10370     10371     10367     10370     10372
     10367     10370     10378     10371     10370     10372     10371     10370     10378
     10372     10370     10378     10370     10372     10373     10372     10373     10374
     10372     10373     10375     10374     10373     10375     10373     10375     10376
     10373     10375     10377     10373     10375     10387     10376     10375     10377
     10376     10375     10387     10377     10375     10387     10370     10378     10379
     10370     10378     10380     10370     10378     10381     10379     10378     10380
     10379     10378     10381     10380     10378     10381     10378     10381     10382
     10381     10382     10383     10381     10382     10384     10383     10382     10384
     10382     10384     10385     10382     10384     10386     10382     10384     10434
     10385     10384     10386     10385     10384     10434     10386     10384     10434
     10375     10387     10388     10375     10387     10389     10375     10387     10390
     10388     10387     10389     10388     10387     10390     10389     10387     10390
     10387     10390     10391     10387     10390     10392     10387     10390     10393
     10391     10390     10392     10391     10390     10393     10392     10390     10393
     10390     10393     10394     10390     10393     10395     10390     10393     10396
     10394     10393     10395     10394     10393     10396     10395     10393     10396
     10393     10396     10397     10393     10396     10398     10393     10396     10399
     10397     10396     10398     10397     10396     10399     10398     10396     10399
     10396     10399     10400     10396     10399     10401     10396     10399     10402
     10400     10399     10401     10400     10399     10402     10401     10399     10402
     10399     10402     10403     10399     10402     10404     10399     10402     10405
     10403     10402     10404     10403     10402     10405     10404     10402     10405
     10402     10405     10406     10402     10405     10407     10406     10405     10407
     10405     10407     10408     10405     10407     10409     10408     10407     10409
     10407     10409     10410     10407     10409     10411     10407     10409     10412
     10410     10409     10411     10410     10409     10412     10411     10409     10412
     10409     10412     10413     10409     10412     10414     10409     10412     10415
     10413     10412     10414     10413     10412     10415     10414     10412     10415
     10412     10415     10416     10412     10415     10417     10412     10415     10418
     10416     10415     10417     10416     10415     10418     10417     10415     10418
     10415     10418     10419     10415     10418     10420     10415     10418     10421
     10419     10418     10420     10419     10418     10421     10420     10418     10421
     10418     10421     10422     10418     10421     10423     10418     10421     10424
     10422     10421     10423     10422     10421     10424     10423     10421     10424
     10421     10424     10425     10421     10424     10426     10421     10424     10427
     10425     10424     10426     10425     10424     10427     10426     10424     10427
     10424     10427     10428     10424     10427     10429     10424     10427     10430
     10428     10427     10429     10428     10427     10430     10429     10427     10430
     10427     10430     10431     10427     10430     10432     10427     10430     10433
     10431     10430     10432     10431     10430     10433     10432     10430     10433
     10384     10434     10435     10384     10434     10436     10384     10434     10437
     10435     10434     10436     10435     10434     10437     10436     10434     10437
     10434     10437     10438     10434     10437     10439     10434     10437     10440
     10438     10437     10439     10438     10437     10440     10439     10437     10440
     10437     10440     10441     10437     10440     10442     10437     10440     10443
     10441     10440     10442     10441     10440     10443     10442     10440     10443
     10440     10443     10444     10440     10443     10445     10440     10443     10446
     10444     10443     10445     10444     10443     10446     10445     10443     10446
     10443     10446     10447     10443     10446     10448     10443     10446     10449
     10447     10446     10448     10447     10446     10449     10448     10446     10449
     10446     10449     10450     10446     10449     10451     10446     10449     10452
     10450     10449     10451     10450     10449     10452     10451     10449     10452
     10449     10452     10453     10449     10452     10454     10449     10452     10455
     10453     10452     10454     10453     10452     10455     10454     10452     10455
     10452     10455     10456     10452     10455     10457     10452     10455     10458
     10456     10455     10457     10456     10455     10458     10457     10455     10458
     10455     10458     10459     10455     10458     10460     10455     10458     10461
     10459     10458     10460     10459     10458     10461     10460     10458     10461
     10458     10461     10462     10458     10461     10463     10458     10461     10464
     10462     10461     10463     10462     10461     10464     10463     10461     10464
     10461     10464     10465     10461     10464     10466     10461     10464     10467
     10465     10464     10466     10465     10464     10467     10466     10464     10467
     10464     10467     10468     10464     10467     10469     10464     10467     10470
     10468     10467     10469     10468     10467     10470     10469     10467     10470
     10467     10470     10471     10467     10470     10472     10467     10470     10473
     10471     10470     10472     10471     10470     10473     10472     10470     10473
     10470     10473     10474     10470     10473     10475     10470     10473     10476
     10474     10473     10475     10474     10473     10476     10475     10473     10476
     10478     10477     10481     10478     10477     10485     10478     10477     10489
     10481     10477     10485     10481     10477     10489     10485     10477     10489
     10477     10478     10479     10477     10478     10480     10477     10478     10493
     10479     10478     10480     10479     10478     10493     10480     10478     10493
     10477     10481     10482     10477     10481     10483     10477     10481     10484
     10482     10481     10483     10482     10481     10484     10483     10481     10484
     10477     10485     10486     10477     10485     10487     10477     10485     10488
     10486     10485     10487     10486     10485     10488     10487     10485     10488
     10477     10489     10490     10477     10489     10491     10477     10489     10492
     10490     10489     10491     10490     10489     10492     10491     10489     10492
     10478     10493     10494     10478     10493     10495     10478     10493     10499
     10494     10493     10495     10494     10493     10499     10495     10493     10499
     10497     10496     10498     10497     10496     10499     10497     10496     10500
     10498     10496     10499     10498     10496     10500     10499     10496     10500
     10493     10499     10496     10496     10500     10501     10500     10501     10502
     10500     10501     10503     10500     10501     10504     10502     10501     10503
     10502     10501     10504     10503     10501     10504     10501     10504     10505
     10501     10504     10506     10501     10504     10512     10505     10504     10506
     10505     10504     10512     10506     10504     10512     10504     10506     10507
     10506     10507     10508     10506     10507     10509     10508     10507     10509
     10507     10509     10510     10507     10509     10511     10507     10509     10521
     10510     10509     10511     10510     10509     10521     10511     10509     10521
     10504     10512     10513     10504     10512     10514     10504     10512     10515
     10513     10512     10514     10513     10512     10515     10514     10512     10515
     10512     10515     10516     10515     10516     10517     10515     10516     10518
     10517     10516     10518     10516     10518     10519     10516     10518     10520
     10516     10518     10568     10519     10518     10520     10519     10518     10568
     10520     10518     10568     10509     10521     10522     10509     10521     10523
     10509     10521     10524     10522     10521     10523     10522     10521     10524
     10523     10521     10524     10521     10524     10525     10521     10524     10526
     10521     10524     10527     10525     10524     10526     10525     10524     10527
     10526     10524     10527     10524     10527     10528     10524     10527     10529
     10524     10527     10530     10528     10527     10529     10528     10527     10530
     10529     10527     10530     10527     10530     10531     10527     10530     10532
     10527     10530     10533     10531     10530     10532     10531     10530     10533
     10532     10530     10533     10530     10533     10534     10530     10533     10535
     10530     10533     10536     10534     10533     10535     10534     10533     10536
     10535     10533     10536     10533     10536     10537     10533     10536     10538
     10533     10536     10539     10537     10536     10538     10537     10536     10539
     10538     10536     10539     10536     10539     10540     10536     10539     10541
     10540     10539     10541     10539     10541     10542     10539     10541     10543
     10542     10541     10543     10541     10543     10544     10541     10543     10545
     10541     10543     10546     10544     10543     10545     10544     10543     10546
     10545     10543     10546     10543     10546     10547     10543     10546     10548
     10543     10546     10549     10547     10546     10548     10547     10546     10549
     10548     10546     10549     10546     10549     10550     10546     10549     10551
     10546     10549     10552     10550     10549     10551     10550     10549     10552
     10551     10549     10552     10549     10552     10553     10549     10552     10554
     10549     10552     10555     10553     10552     10554     10553     10552     10555
     10554     10552     10555     10552     10555     10556     10552     10555     10557
     10552     10555     10558     10556     10555     10557     10556     10555     10558
     10557     10555     10558     10555     10558     10559     10555     10558     10560
     10555     10558     10561     10559     10558     10560     10559     10558     10561
     10560     10558     10561     10558     10561     10562     10558     10561     10563
     10558     10561     10564     10562     10561     10563     10562     10561     10564
     10563     10561     10564     10561     10564     10565     10561     10564     10566
     10561     10564     10567     10565     10564     10566     10565     10564     10567
     10566     10564     10567     10518     10568     10569     10518     10568     10570
     10518     10568     10571     10569     10568     10570     10569     10568     10571
     10570     10568     10571     10568     10571     10572     10568     10571     10573
     10568     10571     10574     10572     10571     10573     10572     10571     10574
     10573     10571     10574     10571     10574     10575     10571     10574     10576
     10571     10574     10577     10575     10574     10576     10575     10574     10577
     10576     10574     10577     10574     10577     10578     10574     10577     10579
     10574     10577     10580     10578     10577     10579     10578     10577     10580
     10579     10577     10580     10577     10580     10581     10577     10580     10582
     10577     10580     10583     10581     10580     10582     10581     10580     10583
     10582     10580     10583     10580     10583     10584     10580     10583     10585
     10580     10583     10586     10584     10583     10585     10584     10583     10586
     10585     10583     10586     10583     10586     10587     10583     10586     10588
     10583     10586     10589     10587     10586     10588     10587     10586     10589
     10588     10586     10589     10586     10589     10590     10586     10589     10591
     10586     10589     10592     10590     10589     10591     10590     10589     10592
     10591     10589     10592     10589     10592     10593     10589     10592     10594
     10589     10592     10595     10593     10592     10594     10593     10592     10595
     10594     10592     10595     10592     10595     10596     10592     10595     10597
     10592     10595     10598     10596     10595     10597     10596     10595     10598
     10597     10595     10598     10595     10598     10599     10595     10598     10600
     10595     10598     10601     10599     10598     10600     10599     10598     10601
     10600     10598     10601     10598     10601     10602     10598     10601     10603
     10598     10601     10604     10602     10601     10603     10602     10601     10604
     10603     10601     10604     10601     10604     10605     10601     10604     10606
     10601     10604     10607     10605     10604     10606     10605     10604     10607
     10606     10604     10607     10604     10607     10608     10604     10607     10609
     10604     10607     10610     10608     10607     10609     10608     10607     10610
     10609     10607     10610     10612     10611     10615     10612     10611     10619
     10612     10611     10623     10615     10611     10619     10615     10611     10623
     10619     10611     10623     10611     10612     10613     10611     10612     10614
     10611     10612     10627     10613     10612     10614     10613     10612     10627
     10614     10612     10627     10611     10615     10616     10611     10615     10617
     10611     10615     10618     10616     10615     10617     10616     10615     10618
     10617     10615     10618     10611     10619     10620     10611     10619     10621
     10611     10619     10622     10620     10619     10621     10620     10619     10622
     10621     10619     10622     10611     10623     10624     10611     10623     10625
     10611     10623     10626     10624     10623     10625     10624     10623     10626
     10625     10623     10626     10612     10627     10628     10612     10627     10629
     10612     10627     10633     10628     10627     10629     10628     10627     10633
     10629     10627     10633     10631     10630     10632     10631     10630     10633
     10631     10630     10634     10632     10630     10633     10632     10630     10634
     10633     10630     10634     10627     10633     10630     10630     10634     10635
     10634     10635     10636     10634     10635     10637     10634     10635     10638
     10636     10635     10637     10636     10635     10638     10637     10635     10638
     10635     10638     10639     10635     10638     10640     10635     10638     10646
     10639     10638     10640     10639     10638     10646     10640     10638     10646
     10638     10640     10641     10640     10641     10642     10640     10641     10643
     10642     10641     10643     10641     10643     10644     10641     10643     10645
     10641     10643     10655     10644     10643     10645     10644     10643     10655
     10645     10643     10655     10638     10646     10647     10638     10646     10648
     10638     10646     10649     10647     10646     10648     10647     10646     10649
     10648     10646     10649     10646     10649     10650     10649     10650     10651
     10649     10650     10652     10651     10650     10652     10650     10652     10653
     10650     10652     10654     10650     10652     10702     10653     10652     10654
     10653     10652     10702     10654     10652     10702     10643     10655     10656
     10643     10655     10657     10643     10655     10658     10656     10655     10657
     10656     10655     10658     10657     10655     10658     10655     10658     10659
     10655     10658     10660     10655     10658     10661     10659     10658     10660
     10659     10658     10661     10660     10658     10661     10658     10661     10662
     10658     10661     10663     10658     10661     10664     10662     10661     10663
     10662     10661     10664     10663     10661     10664     10661     10664     10665
     10661     10664     10666     10661     10664     10667     10665     10664     10666
     10665     10664     10667     10666     10664     10667     10664     10667     10668
     10664     10667     10669     10664     10667     10670     10668     10667     10669
     10668     10667     10670     10669     10667     10670     10667     10670     10671
     10667     10670     10672     10667     10670     10673     10671     10670     10672
     10671     10670     10673     10672     10670     10673     10670     10673     10674
     10670     10673     10675     10674     10673     10675     10673     10675     10676
     10673     10675     10677     10676     10675     10677     10675     10677     10678
     10675     10677     10679     10675     10677     10680     10678     10677     10679
     10678     10677     10680     10679     10677     10680     10677     10680     10681
     10677     10680     10682     10677     10680     10683     10681     10680     10682
     10681     10680     10683     10682     10680     10683     10680     10683     10684
     10680     10683     10685     10680     10683     10686     10684     10683     10685
     10684     10683     10686     10685     10683     10686     10683     10686     10687
     10683     10686     10688     10683     10686     10689     10687     10686     10688
     10687     10686     10689     10688     10686     10689     10686     10689     10690
     10686     10689     10691     10686     10689     10692     10690     10689     10691
     10690     10689     10692     10691     10689     10692     10689     10692     10693
     10689     10692     10694     10689     10692     10695     10693     10692     10694
     10693     10692     10695     10694     10692     10695     10692     10695     10696
     10692     10695     10697     10692     10695     10698     10696     10695     10697
     10696     10695     10698     10697     10695     10698     10695     10698     10699
     10695     10698     10700     10695     10698     10701     10699     10698     10700
     10699     10698     10701     10700     10698     10701     10652     10702     10703
     10652     10702     10704     10652     10702     10705     10703     10702     10704
     10703     10702     10705     10704     10702     10705     10702     10705     10706
     10702     10705     10707     10702     10705     10708     10706     10705     10707
     10706     10705     10708     10707     10705     10708     10705     10708     10709
     10705     10708     10710     10705     10708     10711     10709     10708     10710
     10709     10708     10711     10710     10708     10711     10708     10711     10712
     10708     10711     10713     10708     10711     10714     10712     10711     10713
     10712     10711     10714     10713     10711     10714     10711     10714     10715
     10711     10714     10716     10711     10714     10717     10715     10714     10716
     10715     10714     10717     10716     10714     10717     10714     10717     10718
     10714     10717     10719     10714     10717     10720     10718     10717     10719
     10718     10717     10720     10719     10717     10720     10717     10720     10721
     10717     10720     10722     10717     10720     10723     10721     10720     10722
     10721     10720     10723     10722     10720     10723     10720     10723     10724
     10720     10723     10725     10720     10723     10726     10724     10723     10725
     10724     10723     10726     10725     10723     10726     10723     10726     10727
     10723     10726     10728     10723     10726     10729     10727     10726     10728
     10727     10726     10729     10728     10726     10729     10726     10729     10730
     10726     10729     10731     10726     10729     10732     10730     10729     10731
     10730     10729     10732     10731     10729     10732     10729     10732     10733
     10729     10732     10734     10729     10732     10735     10733     10732     10734
     10733     10732     10735     10734     10732     10735     10732     10735     10736
     10732     10735     10737     10732     10735     10738     10736     10735     10737
     10736     10735     10738     10737     10735     10738     10735     10738     10739
     10735     10738     10740     10735     10738     10741     10739     10738     10740
     10739     10738     10741     10740     10738     10741     10738     10741     10742
     10738     10741     10743     10738     10741     10744     10742     10741     10743
     10742     10741     10744     10743     10741     10744     10746     10745     10749
     10746     10745     10753     10746     10745     10757     10749     10745     10753
     10749     10745     10757     10753     10745     10757     10745     10746     10747
     10745     10746     10748     10745     10746     10761     10747     10746     10748
     10747     10746     10761     10748     10746     10761     10745     10749     10750
     10745     10749     10751     10745     10749     10752     10750     10749     10751
     10750     10749     10752     10751     10749     10752     10745     10753     10754
     10745     10753     10755     10745     10753     10756     10754     10753     10755
     10754     10753     10756     10755     10753     10756     10745     10757     10758
     10745     10757     10759     10745     10757     10760     10758     10757     10759
     10758     10757     10760     10759     10757     10760     10746     10761     10762
     10746     10761     10763     10746     10761     10767     10762     10761     10763
     10762     10761     10767     10763     10761     10767     10765     10764     10766
     10765     10764     10767     10765     10764     10768     10766     10764     10767
     10766     10764     10768     10767     10764     10768     10761     10767     10764
     10764     10768     10769     10768     10769     10770     10768     10769     10771
     10768     10769     10772     10770     10769     10771     10770     10769     10772
     10771     10769     10772     10769     10772     10773     10769     10772     10774
     10769     10772     10780     10773     10772     10774     10773     10772     10780
     10774     10772     10780     10772     10774     10775     10774     10775     10776
     10774     10775     10777     10776     10775     10777     10775     10777     10778
     10775     10777     10779     10775     10777     10789     10778     10777     10779
     10778     10777     10789     10779     10777     10789     10772     10780     10781
     10772     10780     10782     10772     10780     10783     10781     10780     10782
     10781     10780     10783     10782     10780     10783     10780     10783     10784
     10783     10784     10785     10783     10784     10786     10785     10784     10786
     10784     10786     10787     10784     10786     10788     10784     10786     10836
     10787     10786     10788     10787     10786     10836     10788     10786     10836
     10777     10789     10790     10777     10789     10791     10777     10789     10792
     10790     10789     10791     10790     10789     10792     10791     10789     10792
     10789     10792     10793     10789     10792     10794     10789     10792     10795
     10793     10792     10794     10793     10792     10795     10794     10792     10795
     10792     10795     10796     10792     10795     10797     10792     10795     10798
     10796     10795     10797     10796     10795     10798     10797     10795     10798
     10795     10798     10799     10795     10798     10800     10795     10798     10801
     10799     10798     10800     10799     10798     10801     10800     10798     10801
     10798     10801     10802     10798     10801     10803     10798     10801     10804
     10802     10801     10803     10802     10801     10804     10803     10801     10804
     10801     10804     10805     10801     10804     10806     10801     10804     10807
     10805     10804     10806     10805     10804     10807     10806     10804     10807
     10804     10807     10808     10804     10807     10809     10808     10807     10809
     10807     10809     10810     10807     10809     10811     10810     10809     10811
     10809     10811     10812     10809     10811     10813     10809     10811     10814
     10812     10811     10813     10812     10811     10814     10813     10811     10814
     10811     10814     10815     10811     10814     10816     10811     10814     10817
     10815     10814     10816     10815     10814     10817     10816     10814     10817
     10814     10817     10818     10814     10817     10819     10814     10817     10820
     10818     10817     10819     10818     10817     10820     10819     10817     10820
     10817     10820     10821     10817     10820     10822     10817     10820     10823
     10821     10820     10822     10821     10820     10823     10822     10820     10823
     10820     10823     10824     10820     10823     10825     10820     10823     10826
     10824     10823     10825     10824     10823     10826     10825     10823     10826
     10823     10826     10827     10823     10826     10828     10823     10826     10829
     10827     10826     10828     10827     10826     10829     10828     10826     10829
     10826     10829     10830     10826     10829     10831     10826     10829     10832
     10830     10829     10831     10830     10829     10832     10831     10829     10832
     10829     10832     10833     10829     10832     10834     10829     10832     10835
     10833     10832     10834     10833     10832     10835     10834     10832     10835
     10786     10836     10837     10786     10836     10838     10786     10836     10839
     10837     10836     10838     10837     10836     10839     10838     10836     10839
     10836     10839     10840     10836     10839     10841     10836     10839     10842
     10840     10839     10841     10840     10839     10842     10841     10839     10842
     10839     10842     10843     10839     10842     10844     10839     10842     10845
     10843     10842     10844     10843     10842     10845     10844     10842     10845
     10842     10845     10846     10842     10845     10847     10842     10845     10848
     10846     10845     10847     10846     10845     10848     10847     10845     10848
     10845     10848     10849     10845     10848     10850     10845     10848     10851
     10849     10848     10850     10849     10848     10851     10850     10848     10851
     10848     10851     10852     10848     10851     10853     10848     10851     10854
     10852     10851     10853     10852     10851     10854     10853     10851     10854
     10851     10854     10855     10851     10854     10856     10851     10854     10857
     10855     10854     10856     10855     10854     10857     10856     10854     10857
     10854     10857     10858     10854     10857     10859     10854     10857     10860
     10858     10857     10859     10858     10857     10860     10859     10857     10860
     10857     10860     10861     10857     10860     10862     10857     10860     10863
     10861     10860     10862     10861     10860     10863     10862     10860     10863
     10860     10863     10864     10860     10863     10865     10860     10863     10866
     10864     10863     10865     10864     10863     10866     10865     10863     10866
     10863     10866     10867     10863     10866     10868     10863     10866     10869
     10867     10866     10868     10867     10866     10869     10868     10866     10869
     10866     10869     10870     10866     10869     10871     10866     10869     10872
     10870     10869     10871     10870     10869     10872     10871     10869     10872
     10869     10872     10873     10869     10872     10874     10869     10872     10875
     10873     10872     10874     10873     10872     10875     10874     10872     10875
     10872     10875     10876     10872     10875     10877     10872     10875     10878
     10876     10875     10877     10876     10875     10878     10877     10875     10878
     10880     10879     10883     10880     10879     10887     10880     10879     10891
     10883     10879     10887     10883     10879     10891     10887     10879     10891
     10879     10880     10881     10879     10880     10882     10879     10880     10895
     10881     10880     10882     10881     10880     10895     10882     10880     10895
     10879     10883     10884     10879     10883     10885     10879     10883     10886
     10884     10883     10885     10884     10883     10886     10885     10883     10886
     10879     10887     10888     10879     10887     10889     10879     10887     10890
     10888     10887     10889     10888     10887     10890     10889     10887     10890
     10879     10891     10892     10879     10891     10893     10879     10891     10894
     10892     10891     10893     10892     10891     10894     10893     10891     10894
     10880     10895     10896     10880     10895     10897     10880     10895     10901
     10896     10895     10897     10896     10895     10901     10897     10895     10901
     10899     10898     10900     10899     10898     10901     10899     10898     10902
     10900     10898     10901     10900     10898     10902     10901     10898     10902
     10895     10901     10898     10898     10902     10903     10902     10903     10904
     10902     10903     10905     10902     10903     10906     10904     10903     10905
     10904     10903     10906     10905     10903     10906     10903     10906     10907
     10903     10906     10908     10903     10906     10914     10907     10906     10908
     10907     10906     10914     10908     10906     10914     10906     10908     10909
     10908     10909     10910     10908     10909     10911     10910     10909     10911
     10909     10911     10912     10909     10911     10913     10909     10911     10923
     10912     10911     10913     10912     10911     10923     10913     10911     10923
     10906     10914     10915     10906     10914     10916     10906     10914     10917
     10915     10914     10916     10915     10914     10917     10916     10914     10917
     10914     10917     10918     10917     10918     10919     10917     10918     10920
     10919     10918     10920     10918     10920     10921     10918     10920     10922
     10918     10920     10970     10921     10920     10922     10921     10920     10970
     10922     10920     10970     10911     10923     10924     10911     10923     10925
     10911     10923     10926     10924     10923     10925     10924     10923     10926
     10925     10923     10926     10923     10926     10927     10923     10926     10928
     10923     10926     10929     10927     10926     10928     10927     10926     10929
     10928     10926     10929     10926     10929     10930     10926     10929     10931
     10926     10929     10932     10930     10929     10931     10930     10929     10932
     10931     10929     10932     10929     10932     10933     10929     10932     10934
     10929     10932     10935     10933     10932     10934     10933     10932     10935
     10934     10932     10935     10932     10935     10936     10932     10935     10937
     10932     10935     10938     10936     10935     10937     10936     10935     10938
     10937     10935     10938     10935     10938     10939     10935     10938     10940
     10935     10938     10941     10939     10938     10940     10939     10938     10941
     10940     10938     10941     10938     10941     10942     10938     10941     10943
     10942     10941     10943     10941     10943     10944     10941     10943     10945
     10944     10943     10945     10943     10945     10946     10943     10945     10947
     10943     10945     10948     10946     10945     10947     10946     10945     10948
     10947     10945     10948     10945     10948     10949     10945     10948     10950
     10945     10948     10951     10949     10948     10950     10949     10948     10951
     10950     10948     10951     10948     10951     10952     10948     10951     10953
     10948     10951     10954     10952     10951     10953     10952     10951     10954
     10953     10951     10954     10951     10954     10955     10951     10954     10956
     10951     10954     10957     10955     10954     10956     10955     10954     10957
     10956     10954     10957     10954     10957     10958     10954     10957     10959
     10954     10957     10960     10958     10957     10959     10958     10957     10960
     10959     10957     10960     10957     10960     10961     10957     10960     10962
     10957     10960     10963     10961     10960     10962     10961     10960     10963
     10962     10960     10963     10960     10963     10964     10960     10963     10965
     10960     10963     10966     10964     10963     10965     10964     10963     10966
     10965     10963     10966     10963     10966     10967     10963     10966     10968
     10963     10966     10969     10967     10966     10968     10967     10966     10969
     10968     10966     10969     10920     10970     10971     10920     10970     10972
     10920     10970     10973     10971     10970     10972     10971     10970     10973
     10972     10970     10973     10970     10973     10974     10970     10973     10975
     10970     10973     10976     10974     10973     10975     10974     10973     10976
     10975     10973     10976     10973     10976     10977     10973     10976     10978
     10973     10976     10979     10977     10976     10978     10977     10976     10979
     10978     10976     10979     10976     10979     10980     10976     10979     10981
     10976     10979     10982     10980     10979     10981     10980     10979     10982
     10981     10979     10982     10979     10982     10983     10979     10982     10984
     10979     10982     10985     10983     10982     10984     10983     10982     10985
     10984     10982     10985     10982     10985     10986     10982     10985     10987
     10982     10985     10988     10986     10985     10987     10986     10985     10988
     10987     10985     10988     10985     10988     10989     10985     10988     10990
     10985     10988     10991     10989     10988     10990     10989     10988     10991
     10990     10988     10991     10988     10991     10992     10988     10991     10993
     10988     10991     10994     10992     10991     10993     10992     10991     10994
     10993     10991     10994     10991     10994     10995     10991     10994     10996
     10991     10994     10997     10995     10994     10996     10995     10994     10997
     10996     10994     10997     10994     10997     10998     10994     10997     10999
     10994     10997     11000     10998     10997     10999     10998     10997     11000
     10999     10997     11000     10997     11000     11001     10997     11000     11002
     10997     11000     11003     11001     11000     11002     11001     11000     11003
     11002     11000     11003     11000     11003     11004     11000     11003     11005
     11000     11003     11006     11004     11003     11005     11004     11003     11006
     11005     11003     11006     11003     11006     11007     11003     11006     11008
     11003     11006     11009     11007     11006     11008     11007     11006     11009
     11008     11006     11009     11006     11009     11010     11006     11009     11011
     11006     11009     11012     11010     11009     11011     11010     11009     11012
     11011     11009     11012     11014     11013     11017     11014     11013     11021
     11014     11013     11025     11017     11013     11021     11017     11013     11025
     11021     11013     11025     11013     11014     11015     11013     11014     11016
     11013     11014     11029     11015     11014     11016     11015     11014     11029
     11016     11014     11029     11013     11017     11018     11013     11017     11019
     11013     11017     11020     11018     11017     11019     11018     11017     11020
     11019     11017     11020     11013     11021     11022     11013     11021     11023
     11013     11021     11024     11022     11021     11023     11022     11021     11024
     11023     11021     11024     11013     11025     11026     11013     11025     11027
     11013     11025     11028     11026     11025     11027     11026     11025     11028
     11027     11025     11028     11014     11029     11030     11014     11029     11031
     11014     11029     11035     11030     11029     11031     11030     11029     11035
     11031     11029     11035     11033     11032     11034     11033     11032     11035
     11033     11032     11036     11034     11032     11035     11034     11032     11036
     11035     11032     11036     11029     11035     11032     11032     11036     11037
     11036     11037     11038     11036     11037     11039     11036     11037     11040
     11038     11037     11039     11038     11037     11040     11039     11037     11040
     11037     11040     11041     11037     11040     11042     11037     11040     11048
     11041     11040     11042     11041     11040     11048     11042     11040     11048
     11040     11042     11043     11042     11043     11044     11042     11043     11045
     11044     11043     11045     11043     11045     11046     11043     11045     11047
     11043     11045     11057     11046     11045     11047     11046     11045     11057
     11047     11045     11057     11040     11048     11049     11040     11048     11050
     11040     11048     11051     11049     11048     11050     11049     11048     11051
     11050     11048     11051     11048     11051     11052     11051     11052     11053
     11051     11052     11054     11053     11052     11054     11052     11054     11055
     11052     11054     11056     11052     11054     11104     11055     11054     11056
     11055     11054     11104     11056     11054     11104     11045     11057     11058
     11045     11057     11059     11045     11057     11060     11058     11057     11059
     11058     11057     11060     11059     11057     11060     11057     11060     11061
     11057     11060     11062     11057     11060     11063     11061     11060     11062
     11061     11060     11063     11062     11060     11063     11060     11063     11064
     11060     11063     11065     11060     11063     11066     11064     11063     11065
     11064     11063     11066     11065     11063     11066     11063     11066     11067
     11063     11066     11068     11063     11066     11069     11067     11066     11068
     11067     11066     11069     11068     11066     11069     11066     11069     11070
     11066     11069     11071     11066     11069     11072     11070     11069     11071
     11070     11069     11072     11071     11069     11072     11069     11072     11073
     11069     11072     11074     11069     11072     11075     11073     11072     11074
     11073     11072     11075     11074     11072     11075     11072     11075     11076
     11072     11075     11077     11076     11075     11077     11075     11077     11078
     11075     11077     11079     11078     11077     11079     11077     11079     11080
     11077     11079     11081     11077     11079     11082     11080     11079     11081
     11080     11079     11082     11081     11079     11082     11079     11082     11083
     11079     11082     11084     11079     11082     11085     11083     11082     11084
     11083     11082     11085     11084     11082     11085     11082     11085     11086
     11082     11085     11087     11082     11085     11088     11086     11085     11087
     11086     11085     11088     11087     11085     11088     11085     11088     11089
     11085     11088     11090     11085     11088     11091     11089     11088     11090
     11089     11088     11091     11090     11088     11091     11088     11091     11092
     11088     11091     11093     11088     11091     11094     11092     11091     11093
     11092     11091     11094     11093     11091     11094     11091     11094     11095
     11091     11094     11096     11091     11094     11097     11095     11094     11096
     11095     11094     11097     11096     11094     11097     11094     11097     11098
     11094     11097     11099     11094     11097     11100     11098     11097     11099
     11098     11097     11100     11099     11097     11100     11097     11100     11101
     11097     11100     11102     11097     11100     11103     11101     11100     11102
     11101     11100     11103     11102     11100     11103     11054     11104     11105
     11054     11104     11106     11054     11104     11107     11105     11104     11106
     11105     11104     11107     11106     11104     11107     11104     11107     11108
     11104     11107     11109     11104     11107     11110     11108     11107     11109
     11108     11107     11110     11109     11107     11110     11107     11110     11111
     11107     11110     11112     11107     11110     11113     11111     11110     11112
     11111     11110     11113     11112     11110     11113     11110     11113     11114
     11110     11113     11115     11110     11113     11116     11114     11113     11115
     11114     11113     11116     11115     11113     11116     11113     11116     11117
     11113     11116     11118     11113     11116     11119     11117     11116     11118
     11117     11116     11119     11118     11116     11119     11116     11119     11120
     11116     11119     11121     11116     11119     11122     11120     11119     11121
     11120     11119     11122     11121     11119     11122     11119     11122     11123
     11119     11122     11124     11119     11122     11125     11123     11122     11124
     11123     11122     11125     11124     11122     11125     11122     11125     11126
     11122     11125     11127     11122     11125     11128     11126     11125     11127
     11126     11125     11128     11127     11125     11128     11125     11128     11129
     11125     11128     11130     11125     11128     11131     11129     11128     11130
     11129     11128     11131     11130     11128     11131     11128     11131     11132
     11128     11131     11133     11128     11131     11134     11132     11131     11133
     11132     11131     11134     11133     11131     11134     11131     11134     11135
     11131     11134     11136     11131     11134     11137     11135     11134     11136
     11135     11134     11137     11136     11134     11137     11134     11137     11138
     11134     11137     11139     11134     11137     11140     11138     11137     11139
     11138     11137     11140     11139     11137     11140     11137     11140     11141
     11137     11140     11142     11137     11140     11143     11141     11140     11142
     11141     11140     11143     11142     11140     11143     11140     11143     11144
     11140     11143     11145     11140     11143     11146     11144     11143     11145
     11144     11143     11146     11145     11143     11146     11148     11147     11151
     11148     11147     11155     11148     11147     11159     11151     11147     11155
     11151     11147     11159     11155     11147     11159     11147     11148     11149
     11147     11148     11150     11147     11148     11163     11149     11148     11150
     11149     11148     11163     11150     11148     11163     11147     11151     11152
     11147     11151     11153     11147     11151     11154     11152     11151     11153
     11152     11151     11154     11153     11151     11154     11147     11155     11156
     11147     11155     11157     11147     11155     11158     11156     11155     11157
     11156     11155     11158     11157     11155     11158     11147     11159     11160
     11147     11159     11161     11147     11159     11162     11160     11159     11161
     11160     11159     11162     11161     11159     11162     11148     11163     11164
     11148     11163     11165     11148     11163     11169     11164     11163     11165
     11164     11163     11169     11165     11163     11169     11167     11166     11168
     11167     11166     11169     11167     11166     11170     11168     11166     11169
     11168     11166     11170     11169     11166     11170     11163     11169     11166
     11166     11170     11171     11170     11171     11172     11170     11171     11173
     11170     11171     11174     11172     11171     11173     11172     11171     11174
     11173     11171     11174     11171     11174     11175     11171     11174     11176
     11171     11174     11182     11175     11174     11176     11175     11174     11182
     11176     11174     11182     11174     11176     11177     11176     11177     11178
     11176     11177     11179     11178     11177     11179     11177     11179     11180
     11177     11179     11181     11177     11179     11191     11180     11179     11181
     11180     11179     11191     11181     11179     11191     11174     11182     11183
     11174     11182     11184     11174     11182     11185     11183     11182     11184
     11183     11182     11185     11184     11182     11185     11182     11185     11186
     11185     11186     11187     11185     11186     11188     11187     11186     11188
     11186     11188     11189     11186     11188     11190     11186     11188     11238
     11189     11188     11190     11189     11188     11238     11190     11188     11238
     11179     11191     11192     11179     11191     11193     11179     11191     11194
     11192     11191     11193     11192     11191     11194     11193     11191     11194
     11191     11194     11195     11191     11194     11196     11191     11194     11197
     11195     11194     11196     11195     11194     11197     11196     11194     11197
     11194     11197     11198     11194     11197     11199     11194     11197     11200
     11198     11197     11199     11198     11197     11200     11199     11197     11200
     11197     11200     11201     11197     11200     11202     11197     11200     11203
     11201     11200     11202     11201     11200     11203     11202     11200     11203
     11200     11203     11204     11200     11203     11205     11200     11203     11206
     11204     11203     11205     11204     11203     11206     11205     11203     11206
     11203     11206     11207     11203     11206     11208     11203     11206     11209
     11207     11206     11208     11207     11206     11209     11208     11206     11209
     11206     11209     11210     11206     11209     11211     11210     11209     11211
     11209     11211     11212     11209     11211     11213     11212     11211     11213
     11211     11213     11214     11211     11213     11215     11211     11213     11216
     11214     11213     11215     11214     11213     11216     11215     11213     11216
     11213     11216     11217     11213     11216     11218     11213     11216     11219
     11217     11216     11218     11217     11216     11219     11218     11216     11219
     11216     11219     11220     11216     11219     11221     11216     11219     11222
     11220     11219     11221     11220     11219     11222     11221     11219     11222
     11219     11222     11223     11219     11222     11224     11219     11222     11225
     11223     11222     11224     11223     11222     11225     11224     11222     11225
     11222     11225     11226     11222     11225     11227     11222     11225     11228
     11226     11225     11227     11226     11225     11228     11227     11225     11228
     11225     11228     11229     11225     11228     11230     11225     11228     11231
     11229     11228     11230     11229     11228     11231     11230     11228     11231
     11228     11231     11232     11228     11231     11233     11228     11231     11234
     11232     11231     11233     11232     11231     11234     11233     11231     11234
     11231     11234     11235     11231     11234     11236     11231     11234     11237
     11235     11234     11236     11235     11234     11237     11236     11234     11237
     11188     11238     11239     11188     11238     11240     11188     11238     11241
     11239     11238     11240     11239     11238     11241     11240     11238     11241
     11238     11241     11242     11238     11241     11243     11238     11241     11244
     11242     11241     11243     11242     11241     11244     11243     11241     11244
     11241     11244     11245     11241     11244     11246     11241     11244     11247
     11245     11244     11246     11245     11244     11247     11246     11244     11247
     11244     11247     11248     11244     11247     11249     11244     11247     11250
     11248     11247     11249     11248     11247     11250     11249     11247     11250
     11247     11250     11251     11247     11250     11252     11247     11250     11253
     11251     11250     11252     11251     11250     11253     11252     11250     11253
     11250     11253     11254     11250     11253     11255     11250     11253     11256
     11254     11253     11255     11254     11253     11256     11255     11253     11256
     11253     11256     11257     11253     11256     11258     11253     11256     11259
     11257     11256     11258     11257     11256     11259     11258     11256     11259
     11256     11259     11260     11256     11259     11261     11256     11259     11262
     11260     11259     11261     11260     11259     11262     11261     11259     11262
     11259     11262     11263     11259     11262     11264     11259     11262     11265
     11263     11262     11264     11263     11262     11265     11264     11262     11265
     11262     11265     11266     11262     11265     11267     11262     11265     11268
     11266     11265     11267     11266     11265     11268     11267     11265     11268
     11265     11268     11269     11265     11268     11270     11265     11268     11271
     11269     11268     11270     11269     11268     11271     11270     11268     11271
     11268     11271     11272     11268     11271     11273     11268     11271     11274
     11272     11271     11273     11272     11271     11274     11273     11271     11274
     11271     11274     11275     11271     11274     11276     11271     11274     11277
     11275     11274     11276     11275     11274     11277     11276     11274     11277
     11274     11277     11278     11274     11277     11279     11274     11277     11280
     11278     11277     11279     11278     11277     11280     11279     11277     11280
     11282     11281     11285     11282     11281     11289     11282     11281     11293
     11285     11281     11289     11285     11281     11293     11289     11281     11293
     11281     11282     11283     11281     11282     11284     11281     11282     11297
     11283     11282     11284     11283     11282     11297     11284     11282     11297
     11281     11285     11286     11281     11285     11287     11281     11285     11288
     11286     11285     11287     11286     11285     11288     11287     11285     11288
     11281     11289     11290     11281     11289     11291     11281     11289     11292
     11290     11289     11291     11290     11289     11292     11291     11289     11292
     11281     11293     11294     11281     11293     11295     11281     11293     11296
     11294     11293     11295     11294     11293     11296     11295     11293     11296
     11282     11297     11298     11282     11297     11299     11282     11297     11303
     11298     11297     11299     11298     11297     11303     11299     11297     11303
     11301     11300     11302     11301     11300     11303     11301     11300     11304
     11302     11300     11303     11302     11300     11304     11303     11300     11304
     11297     11303     11300     11300     11304     11305     11304     11305     11306
     11304     11305     11307     11304     11305     11308     11306     11305     11307
     11306     11305     11308     11307     11305     11308     11305     11308     11309
     11305     11308     11310     11305     11308     11316     11309     11308     11310
     11309     11308     11316     11310     11308     11316     11308     11310     11311
     11310     11311     11312     11310     11311     11313     11312     11311     11313
     11311     11313     11314     11311     11313     11315     11311     11313     11325
     11314     11313     11315     11314     11313     11325     11315     11313     11325
     11308     11316     11317     11308     11316     11318     11308     11316     11319
     11317     11316     11318     11317     11316     11319     11318     11316     11319
     11316     11319     11320     11319     11320     11321     11319     11320     11322
     11321     11320     11322     11320     11322     11323     11320     11322     11324
     11320     11322     11372     11323     11322     11324     11323     11322     11372
     11324     11322     11372     11313     11325     11326     11313     11325     11327
     11313     11325     11328     11326     11325     11327     11326     11325     11328
     11327     11325     11328     11325     11328     11329     11325     11328     11330
     11325     11328     11331     11329     11328     11330     11329     11328     11331
     11330     11328     11331     11328     11331     11332     11328     11331     11333
     11328     11331     11334     11332     11331     11333     11332     11331     11334
     11333     11331     11334     11331     11334     11335     11331     11334     11336
     11331     11334     11337     11335     11334     11336     11335     11334     11337
     11336     11334     11337     11334     11337     11338     11334     11337     11339
     11334     11337     11340     11338     11337     11339     11338     11337     11340
     11339     11337     11340     11337     11340     11341     11337     11340     11342
     11337     11340     11343     11341     11340     11342     11341     11340     11343
     11342     11340     11343     11340     11343     11344     11340     11343     11345
     11344     11343     11345     11343     11345     11346     11343     11345     11347
     11346     11345     11347     11345     11347     11348     11345     11347     11349
     11345     11347     11350     11348     11347     11349     11348     11347     11350
     11349     11347     11350     11347     11350     11351     11347     11350     11352
     11347     11350     11353     11351     11350     11352     11351     11350     11353
     11352     11350     11353     11350     11353     11354     11350     11353     11355
     11350     11353     11356     11354     11353     11355     11354     11353     11356
     11355     11353     11356     11353     11356     11357     11353     11356     11358
     11353     11356     11359     11357     11356     11358     11357     11356     11359
     11358     11356     11359     11356     11359     11360     11356     11359     11361
     11356     11359     11362     11360     11359     11361     11360     11359     11362
     11361     11359     11362     11359     11362     11363     11359     11362     11364
     11359     11362     11365     11363     11362     11364     11363     11362     11365
     11364     11362     11365     11362     11365     11366     11362     11365     11367
     11362     11365     11368     11366     11365     11367     11366     11365     11368
     11367     11365     11368     11365     11368     11369     11365     11368     11370
     11365     11368     11371     11369     11368     11370     11369     11368     11371
     11370     11368     11371     11322     11372     11373     11322     11372     11374
     11322     11372     11375     11373     11372     11374     11373     11372     11375
     11374     11372     11375     11372     11375     11376     11372     11375     11377
     11372     11375     11378     11376     11375     11377     11376     11375     11378
     11377     11375     11378     11375     11378     11379     11375     11378     11380
     11375     11378     11381     11379     11378     11380     11379     11378     11381
     11380     11378     11381     11378     11381     11382     11378     11381     11383
     11378     11381     11384     11382     11381     11383     11382     11381     11384
     11383     11381     11384     11381     11384     11385     11381     11384     11386
     11381     11384     11387     11385     11384     11386     11385     11384     11387
     11386     11384     11387     11384     11387     11388     11384     11387     11389
     11384     11387     11390     11388     11387     11389     11388     11387     11390
     11389     11387     11390     11387     11390     11391     11387     11390     11392
     11387     11390     11393     11391     11390     11392     11391     11390     11393
     11392     11390     11393     11390     11393     11394     11390     11393     11395
     11390     11393     11396     11394     11393     11395     11394     11393     11396
     11395     11393     11396     11393     11396     11397     11393     11396     11398
     11393     11396     11399     11397     11396     11398     11397     11396     11399
     11398     11396     11399     11396     11399     11400     11396     11399     11401
     11396     11399     11402     11400     11399     11401     11400     11399     11402
     11401     11399     11402     11399     11402     11403     11399     11402     11404
     11399     11402     11405     11403     11402     11404     11403     11402     11405
     11404     11402     11405     11402     11405     11406     11402     11405     11407
     11402     11405     11408     11406     11405     11407     11406     11405     11408
     11407     11405     11408     11405     11408     11409     11405     11408     11410
     11405     11408     11411     11409     11408     11410     11409     11408     11411
     11410     11408     11411     11408     11411     11412     11408     11411     11413
     11408     11411     11414     11412     11411     11413     11412     11411     11414
     11413     11411     11414     11416     11415     11417     11416     11415     11418
     11416     11415     11419     11417     11415     11418     11417     11415     11419
     11418     11415     11419     11415     11419     11420     11415     11419     11421
     11415     11419     11424     11420     11419     11421     11420     11419     11424
     11421     11419     11424     11419     11421     11422     11419     11421     11423
     11422     11421     11423     11419     11424     11425     11419     11424     11426
     11419     11424     11430     11425     11424     11426     11425     11424     11430
     11426     11424     11430     11428     11427     11429     11428     11427     11430
     11428     11427     11431     11429     11427     11430     11429     11427     11431
     11430     11427     11431     11424     11430     11427     11427     11431     11432
     11431     11432     11433     11431     11432     11434     11431     11432     11435
     11433     11432     11434     11433     11432     11435     11434     11432     11435
     11432     11435     11436     11432     11435     11437     11432     11435     11443
     11436     11435     11437     11436     11435     11443     11437     11435     11443
     11435     11437     11438     11437     11438     11439     11437     11438     11440
     11439     11438     11440     11438     11440     11441     11438     11440     11442
     11438     11440     11452     11441     11440     11442     11441     11440     11452
     11442     11440     11452     11435     11443     11444     11435     11443     11445
     11435     11443     11446     11444     11443     11445     11444     11443     11446
     11445     11443     11446     11443     11446     11447     11446     11447     11448
     11446     11447     11449     11448     11447     11449     11447     11449     11450
     11447     11449     11451     11447     11449     11499     11450     11449     11451
     11450     11449     11499     11451     11449     11499     11440     11452     11453
     11440     11452     11454     11440     11452     11455     11453     11452     11454
     11453     11452     11455     11454     11452     11455     11452     11455     11456
     11452     11455     11457     11452     11455     11458     11456     11455     11457
     11456     11455     11458     11457     11455     11458     11455     11458     11459
     11455     11458     11460     11455     11458     11461     11459     11458     11460
     11459     11458     11461     11460     11458     11461     11458     11461     11462
     11458     11461     11463     11458     11461     11464     11462     11461     11463
     11462     11461     11464     11463     11461     11464     11461     11464     11465
     11461     11464     11466     11461     11464     11467     11465     11464     11466
     11465     11464     11467     11466     11464     11467     11464     11467     11468
     11464     11467     11469     11464     11467     11470     11468     11467     11469
     11468     11467     11470     11469     11467     11470     11467     11470     11471
     11467     11470     11472     11471     11470     11472     11470     11472     11473
     11470     11472     11474     11473     11472     11474     11472     11474     11475
     11472     11474     11476     11472     11474     11477     11475     11474     11476
     11475     11474     11477     11476     11474     11477     11474     11477     11478
     11474     11477     11479     11474     11477     11480     11478     11477     11479
     11478     11477     11480     11479     11477     11480     11477     11480     11481
     11477     11480     11482     11477     11480     11483     11481     11480     11482
     11481     11480     11483     11482     11480     11483     11480     11483     11484
     11480     11483     11485     11480     11483     11486     11484     11483     11485
     11484     11483     11486     11485     11483     11486     11483     11486     11487
     11483     11486     11488     11483     11486     11489     11487     11486     11488
     11487     11486     11489     11488     11486     11489     11486     11489     11490
     11486     11489     11491     11486     11489     11492     11490     11489     11491
     11490     11489     11492     11491     11489     11492     11489     11492     11493
     11489     11492     11494     11489     11492     11495     11493     11492     11494
     11493     11492     11495     11494     11492     11495     11492     11495     11496
     11492     11495     11497     11492     11495     11498     11496     11495     11497
     11496     11495     11498     11497     11495     11498     11449     11499     11500
     11449     11499     11501     11449     11499     11502     11500     11499     11501
     11500     11499     11502     11501     11499     11502     11499     11502     11503
     11499     11502     11504     11499     11502     11505     11503     11502     11504
     11503     11502     11505     11504     11502     11505     11502     11505     11506
     11502     11505     11507     11502     11505     11508     11506     11505     11507
     11506     11505     11508     11507     11505     11508     11505     11508     11509
     11505     11508     11510     11505     11508     11511     11509     11508     11510
     11509     11508     11511     11510     11508     11511     11508     11511     11512
     11508     11511     11513     11508     11511     11514     11512     11511     11513
     11512     11511     11514     11513     11511     11514     11511     11514     11515
     11511     11514     11516     11511     11514     11517     11515     11514     11516
     11515     11514     11517     11516     11514     11517     11514     11517     11518
     11514     11517     11519     11514     11517     11520     11518     11517     11519
     11518     11517     11520     11519     11517     11520     11517     11520     11521
     11517     11520     11522     11517     11520     11523     11521     11520     11522
     11521     11520     11523     11522     11520     11523     11520     11523     11524
     11520     11523     11525     11520     11523     11526     11524     11523     11525
     11524     11523     11526     11525     11523     11526     11523     11526     11527
     11523     11526     11528     11523     11526     11529     11527     11526     11528
     11527     11526     11529     11528     11526     11529     11526     11529     11530
     11526     11529     11531     11526     11529     11532     11530     11529     11531
     11530     11529     11532     11531     11529     11532     11529     11532     11533
     11529     11532     11534     11529     11532     11535     11533     11532     11534
     11533     11532     11535     11534     11532     11535     11532     11535     11536
     11532     11535     11537     11532     11535     11538     11536     11535     11537
     11536     11535     11538     11537     11535     11538     11535     11538     11539
     11535     11538     11540     11535     11538     11541     11539     11538     11540
     11539     11538     11541     11540     11538     11541     11543     11542     11546
     11543     11542     11550     11543     11542     11554     11546     11542     11550
     11546     11542     11554     11550     11542     11554     11542     11543     11544
     11542     11543     11545     11542     11543     11558     11544     11543     11545
     11544     11543     11558     11545     11543     11558     11542     11546     11547
     11542     11546     11548     11542     11546     11549     11547     11546     11548
     11547     11546     11549     11548     11546     11549     11542     11550     11551
     11542     11550     11552     11542     11550     11553     11551     11550     11552
     11551     11550     11553     11552     11550     11553     11542     11554     11555
     11542     11554     11556     11542     11554     11557     11555     11554     11556
     11555     11554     11557     11556     11554     11557     11543     11558     11559
     11543     11558     11560     11543     11558     11564     11559     11558     11560
     11559     11558     11564     11560     11558     11564     11562     11561     11563
     11562     11561     11564     11562     11561     11565     11563     11561     11564
     11563     11561     11565     11564     11561     11565     11558     11564     11561
     11561     11565     11566     11565     11566     11567     11565     11566     11568
     11565     11566     11569     11567     11566     11568     11567     11566     11569
     11568     11566     11569     11566     11569     11570     11566     11569     11571
     11566     11569     11577     11570     11569     11571     11570     11569     11577
     11571     11569     11577     11569     11571     11572     11571     11572     11573
     11571     11572     11574     11573     11572     11574     11572     11574     11575
     11572     11574     11576     11572     11574     11586     11575     11574     11576
     11575     11574     11586     11576     11574     11586     11569     11577     11578
     11569     11577     11579     11569     11577     11580     11578     11577     11579
     11578     11577     11580     11579     11577     11580     11577     11580     11581
     11580     11581     11582     11580     11581     11583     11582     11581     11583
     11581     11583     11584     11581     11583     11585     11581     11583     11633
     11584     11583     11585     11584     11583     11633     11585     11583     11633
     11574     11586     11587     11574     11586     11588     11574     11586     11589
     11587     11586     11588     11587     11586     11589     11588     11586     11589
     11586     11589     11590     11586     11589     11591     11586     11589     11592
     11590     11589     11591     11590     11589     11592     11591     11589     11592
     11589     11592     11593     11589     11592     11594     11589     11592     11595
     11593     11592     11594     11593     11592     11595     11594     11592     11595
     11592     11595     11596     11592     11595     11597     11592     11595     11598
     11596     11595     11597     11596     11595     11598     11597     11595     11598
     11595     11598     11599     11595     11598     11600     11595     11598     11601
     11599     11598     11600     11599     11598     11601     11600     11598     11601
     11598     11601     11602     11598     11601     11603     11598     11601     11604
     11602     11601     11603     11602     11601     11604     11603     11601     11604
     11601     11604     11605     11601     11604     11606     11605     11604     11606
     11604     11606     11607     11604     11606     11608     11607     11606     11608
     11606     11608     11609     11606     11608     11610     11606     11608     11611
     11609     11608     11610     11609     11608     11611     11610     11608     11611
     11608     11611     11612     11608     11611     11613     11608     11611     11614
     11612     11611     11613     11612     11611     11614     11613     11611     11614
     11611     11614     11615     11611     11614     11616     11611     11614     11617
     11615     11614     11616     11615     11614     11617     11616     11614     11617
     11614     11617     11618     11614     11617     11619     11614     11617     11620
     11618     11617     11619     11618     11617     11620     11619     11617     11620
     11617     11620     11621     11617     11620     11622     11617     11620     11623
     11621     11620     11622     11621     11620     11623     11622     11620     11623
     11620     11623     11624     11620     11623     11625     11620     11623     11626
     11624     11623     11625     11624     11623     11626     11625     11623     11626
     11623     11626     11627     11623     11626     11628     11623     11626     11629
     11627     11626     11628     11627     11626     11629     11628     11626     11629
     11626     11629     11630     11626     11629     11631     11626     11629     11632
     11630     11629     11631     11630     11629     11632     11631     11629     11632
     11583     11633     11634     11583     11633     11635     11583     11633     11636
     11634     11633     11635     11634     11633     11636     11635     11633     11636
     11633     11636     11637     11633     11636     11638     11633     11636     11639
     11637     11636     11638     11637     11636     11639     11638     11636     11639
     11636     11639     11640     11636     11639     11641     11636     11639     11642
     11640     11639     11641     11640     11639     11642     11641     11639     11642
     11639     11642     11643     11639     11642     11644     11639     11642     11645
     11643     11642     11644     11643     11642     11645     11644     11642     11645
     11642     11645     11646     11642     11645     11647     11642     11645     11648
     11646     11645     11647     11646     11645     11648     11647     11645     11648
     11645     11648     11649     11645     11648     11650     11645     11648     11651
     11649     11648     11650     11649     11648     11651     11650     11648     11651
     11648     11651     11652     11648     11651     11653     11648     11651     11654
     11652     11651     11653     11652     11651     11654     11653     11651     11654
     11651     11654     11655     11651     11654     11656     11651     11654     11657
     11655     11654     11656     11655     11654     11657     11656     11654     11657
     11654     11657     11658     11654     11657     11659     11654     11657     11660
     11658     11657     11659     11658     11657     11660     11659     11657     11660
     11657     11660     11661     11657     11660     11662     11657     11660     11663
     11661     11660     11662     11661     11660     11663     11662     11660     11663
     11660     11663     11664     11660     11663     11665     11660     11663     11666
     11664     11663     11665     11664     11663     11666     11665     11663     11666
     11663     11666     11667     11663     11666     11668     11663     11666     11669
     11667     11666     11668     11667     11666     11669     11668     11666     11669
     11666     11669     11670     11666     11669     11671     11666     11669     11672
     11670     11669     11671     11670     11669     11672     11671     11669     11672
     11669     11672     11673     11669     11672     11674     11669     11672     11675
     11673     11672     11674     11673     11672     11675     11674     11672     11675
     11677     11676     11680     11677     11676     11684     11677     11676     11688
     11680     11676     11684     11680     11676     11688     11684     11676     11688
     11676     11677     11678     11676     11677     11679     11676     11677     11692
     11678     11677     11679     11678     11677     11692     11679     11677     11692
     11676     11680     11681     11676     11680     11682     11676     11680     11683
     11681     11680     11682     11681     11680     11683     11682     11680     11683
     11676     11684     11685     11676     11684     11686     11676     11684     11687
     11685     11684     11686     11685     11684     11687     11686     11684     11687
     11676     11688     11689     11676     11688     11690     11676     11688     11691
     11689     11688     11690     11689     11688     11691     11690     11688     11691
     11677     11692     11693     11677     11692     11694     11677     11692     11698
     11693     11692     11694     11693     11692     11698     11694     11692     11698
     11696     11695     11697     11696     11695     11698     11696     11695     11699
     11697     11695     11698     11697     11695     11699     11698     11695     11699
     11692     11698     11695     11695     11699     11700     11699     11700     11701
     11699     11700     11702     11699     11700     11703     11701     11700     11702
     11701     11700     11703     11702     11700     11703     11700     11703     11704
     11700     11703     11705     11700     11703     11711     11704     11703     11705
     11704     11703     11711     11705     11703     11711     11703     11705     11706
     11705     11706     11707     11705     11706     11708     11707     11706     11708
     11706     11708     11709     11706     11708     11710     11706     11708     11720
     11709     11708     11710     11709     11708     11720     11710     11708     11720
     11703     11711     11712     11703     11711     11713     11703     11711     11714
     11712     11711     11713     11712     11711     11714     11713     11711     11714
     11711     11714     11715     11714     11715     11716     11714     11715     11717
     11716     11715     11717     11715     11717     11718     11715     11717     11719
     11715     11717     11767     11718     11717     11719     11718     11717     11767
     11719     11717     11767     11708     11720     11721     11708     11720     11722
     11708     11720     11723     11721     11720     11722     11721     11720     11723
     11722     11720     11723     11720     11723     11724     11720     11723     11725
     11720     11723     11726     11724     11723     11725     11724     11723     11726
     11725     11723     11726     11723     11726     11727     11723     11726     11728
     11723     11726     11729     11727     11726     11728     11727     11726     11729
     11728     11726     11729     11726     11729     11730     11726     11729     11731
     11726     11729     11732     11730     11729     11731     11730     11729     11732
     11731     11729     11732     11729     11732     11733     11729     11732     11734
     11729     11732     11735     11733     11732     11734     11733     11732     11735
     11734     11732     11735     11732     11735     11736     11732     11735     11737
     11732     11735     11738     11736     11735     11737     11736     11735     11738
     11737     11735     11738     11735     11738     11739     11735     11738     11740
     11739     11738     11740     11738     11740     11741     11738     11740     11742
     11741     11740     11742     11740     11742     11743     11740     11742     11744
     11740     11742     11745     11743     11742     11744     11743     11742     11745
     11744     11742     11745     11742     11745     11746     11742     11745     11747
     11742     11745     11748     11746     11745     11747     11746     11745     11748
     11747     11745     11748     11745     11748     11749     11745     11748     11750
     11745     11748     11751     11749     11748     11750     11749     11748     11751
     11750     11748     11751     11748     11751     11752     11748     11751     11753
     11748     11751     11754     11752     11751     11753     11752     11751     11754
     11753     11751     11754     11751     11754     11755     11751     11754     11756
     11751     11754     11757     11755     11754     11756     11755     11754     11757
     11756     11754     11757     11754     11757     11758     11754     11757     11759
     11754     11757     11760     11758     11757     11759     11758     11757     11760
     11759     11757     11760     11757     11760     11761     11757     11760     11762
     11757     11760     11763     11761     11760     11762     11761     11760     11763
     11762     11760     11763     11760     11763     11764     11760     11763     11765
     11760     11763     11766     11764     11763     11765     11764     11763     11766
     11765     11763     11766     11717     11767     11768     11717     11767     11769
     11717     11767     11770     11768     11767     11769     11768     11767     11770
     11769     11767     11770     11767     11770     11771     11767     11770     11772
     11767     11770     11773     11771     11770     11772     11771     11770     11773
     11772     11770     11773     11770     11773     11774     11770     11773     11775
     11770     11773     11776     11774     11773     11775     11774     11773     11776
     11775     11773     11776     11773     11776     11777     11773     11776     11778
     11773     11776     11779     11777     11776     11778     11777     11776     11779
     11778     11776     11779     11776     11779     11780     11776     11779     11781
     11776     11779     11782     11780     11779     11781     11780     11779     11782
     11781     11779     11782     11779     11782     11783     11779     11782     11784
     11779     11782     11785     11783     11782     11784     11783     11782     11785
     11784     11782     11785     11782     11785     11786     11782     11785     11787
     11782     11785     11788     11786     11785     11787     11786     11785     11788
     11787     11785     11788     11785     11788     11789     11785     11788     11790
     11785     11788     11791     11789     11788     11790     11789     11788     11791
     11790     11788     11791     11788     11791     11792     11788     11791     11793
     11788     11791     11794     11792     11791     11793     11792     11791     11794
     11793     11791     11794     11791     11794     11795     11791     11794     11796
     11791     11794     11797     11795     11794     11796     11795     11794     11797
     11796     11794     11797     11794     11797     11798     11794     11797     11799
     11794     11797     11800     11798     11797     11799     11798     11797     11800
     11799     11797     11800     11797     11800     11801     11797     11800     11802
     11797     11800     11803     11801     11800     11802     11801     11800     11803
     11802     11800     11803     11800     11803     11804     11800     11803     11805
     11800     11803     11806     11804     11803     11805     11804     11803     11806
     11805     11803     11806     11803     11806     11807     11803     11806     11808
     11803     11806     11809     11807     11806     11808     11807     11806     11809
     11808     11806     11809     11811     11810     11814     11811     11810     11818
     11811     11810     11822     11814     11810     11818     11814     11810     11822
     11818     11810     11822     11810     11811     11812     11810     11811     11813
     11810     11811     11826     11812     11811     11813     11812     11811     11826
     11813     11811     11826     11810     11814     11815     11810     11814     11816
     11810     11814     11817     11815     11814     11816     11815     11814     11817
     11816     11814     11817     11810     11818     11819     11810     11818     11820
     11810     11818     11821     11819     11818     11820     11819     11818     11821
     11820     11818     11821     11810     11822     11823     11810     11822     11824
     11810     11822     11825     11823     11822     11824     11823     11822     11825
     11824     11822     11825     11811     11826     11827     11811     11826     11828
     11811     11826     11832     11827     11826     11828     11827     11826     11832
     11828     11826     11832     11830     11829     11831     11830     11829     11832
     11830     11829     11833     11831     11829     11832     11831     11829     11833
     11832     11829     11833     11826     11832     11829     11829     11833     11834
     11833     11834     11835     11833     11834     11836     11833     11834     11837
     11835     11834     11836     11835     11834     11837     11836     11834     11837
     11834     11837     11838     11834     11837     11839     11834     11837     11845
     11838     11837     11839     11838     11837     11845     11839     11837     11845
     11837     11839     11840     11839     11840     11841     11839     11840     11842
     11841     11840     11842     11840     11842     11843     11840     11842     11844
     11840     11842     11854     11843     11842     11844     11843     11842     11854
     11844     11842     11854     11837     11845     11846     11837     11845     11847
     11837     11845     11848     11846     11845     11847     11846     11845     11848
     11847     11845     11848     11845     11848     11849     11848     11849     11850
     11848     11849     11851     11850     11849     11851     11849     11851     11852
     11849     11851     11853     11849     11851     11901     11852     11851     11853
     11852     11851     11901     11853     11851     11901     11842     11854     11855
     11842     11854     11856     11842     11854     11857     11855     11854     11856
     11855     11854     11857     11856     11854     11857     11854     11857     11858
     11854     11857     11859     11854     11857     11860     11858     11857     11859
     11858     11857     11860     11859     11857     11860     11857     11860     11861
     11857     11860     11862     11857     11860     11863     11861     11860     11862
     11861     11860     11863     11862     11860     11863     11860     11863     11864
     11860     11863     11865     11860     11863     11866     11864     11863     11865
     11864     11863     11866     11865     11863     11866     11863     11866     11867
     11863     11866     11868     11863     11866     11869     11867     11866     11868
     11867     11866     11869     11868     11866     11869     11866     11869     11870
     11866     11869     11871     11866     11869     11872     11870     11869     11871
     11870     11869     11872     11871     11869     11872     11869     11872     11873
     11869     11872     11874     11873     11872     11874     11872     11874     11875
     11872     11874     11876     11875     11874     11876     11874     11876     11877
     11874     11876     11878     11874     11876     11879     11877     11876     11878
     11877     11876     11879     11878     11876     11879     11876     11879     11880
     11876     11879     11881     11876     11879     11882     11880     11879     11881
     11880     11879     11882     11881     11879     11882     11879     11882     11883
     11879     11882     11884     11879     11882     11885     11883     11882     11884
     11883     11882     11885     11884     11882     11885     11882     11885     11886
     11882     11885     11887     11882     11885     11888     11886     11885     11887
     11886     11885     11888     11887     11885     11888     11885     11888     11889
     11885     11888     11890     11885     11888     11891     11889     11888     11890
     11889     11888     11891     11890     11888     11891     11888     11891     11892
     11888     11891     11893     11888     11891     11894     11892     11891     11893
     11892     11891     11894     11893     11891     11894     11891     11894     11895
     11891     11894     11896     11891     11894     11897     11895     11894     11896
     11895     11894     11897     11896     11894     11897     11894     11897     11898
     11894     11897     11899     11894     11897     11900     11898     11897     11899
     11898     11897     11900     11899     11897     11900     11851     11901     11902
     11851     11901     11903     11851     11901     11904     11902     11901     11903
     11902     11901     11904     11903     11901     11904     11901     11904     11905
     11901     11904     11906     11901     11904     11907     11905     11904     11906
     11905     11904     11907     11906     11904     11907     11904     11907     11908
     11904     11907     11909     11904     11907     11910     11908     11907     11909
     11908     11907     11910     11909     11907     11910     11907     11910     11911
     11907     11910     11912     11907     11910     11913     11911     11910     11912
     11911     11910     11913     11912     11910     11913     11910     11913     11914
     11910     11913     11915     11910     11913     11916     11914     11913     11915
     11914     11913     11916     11915     11913     11916     11913     11916     11917
     11913     11916     11918     11913     11916     11919     11917     11916     11918
     11917     11916     11919     11918     11916     11919     11916     11919     11920
     11916     11919     11921     11916     11919     11922     11920     11919     11921
     11920     11919     11922     11921     11919     11922     11919     11922     11923
     11919     11922     11924     11919     11922     11925     11923     11922     11924
     11923     11922     11925     11924     11922     11925     11922     11925     11926
     11922     11925     11927     11922     11925     11928     11926     11925     11927
     11926     11925     11928     11927     11925     11928     11925     11928     11929
     11925     11928     11930     11925     11928     11931     11929     11928     11930
     11929     11928     11931     11930     11928     11931     11928     11931     11932
     11928     11931     11933     11928     11931     11934     11932     11931     11933
     11932     11931     11934     11933     11931     11934     11931     11934     11935
     11931     11934     11936     11931     11934     11937     11935     11934     11936
     11935     11934     11937     11936     11934     11937     11934     11937     11938
     11934     11937     11939     11934     11937     11940     11938     11937     11939
     11938     11937     11940     11939     11937     11940     11937     11940     11941
     11937     11940     11942     11937     11940     11943     11941     11940     11942
     11941     11940     11943     11942     11940     11943     11945     11944     11948
     11945     11944     11952     11945     11944     11956     11948     11944     11952
     11948     11944     11956     11952     11944     11956     11944     11945     11946
     11944     11945     11947     11944     11945     11960     11946     11945     11947
     11946     11945     11960     11947     11945     11960     11944     11948     11949
     11944     11948     11950     11944     11948     11951     11949     11948     11950
     11949     11948     11951     11950     11948     11951     11944     11952     11953
     11944     11952     11954     11944     11952     11955     11953     11952     11954
     11953     11952     11955     11954     11952     11955     11944     11956     11957
     11944     11956     11958     11944     11956     11959     11957     11956     11958
     11957     11956     11959     11958     11956     11959     11945     11960     11961
     11945     11960     11962     11945     11960     11966     11961     11960     11962
     11961     11960     11966     11962     11960     11966     11964     11963     11965
     11964     11963     11966     11964     11963     11967     11965     11963     11966
     11965     11963     11967     11966     11963     11967     11960     11966     11963
     11963     11967     11968     11967     11968     11969     11967     11968     11970
     11967     11968     11971     11969     11968     11970     11969     11968     11971
     11970     11968     11971     11968     11971     11972     11968     11971     11973
     11968     11971     11979     11972     11971     11973     11972     11971     11979
     11973     11971     11979     11971     11973     11974     11973     11974     11975
     11973     11974     11976     11975     11974     11976     11974     11976     11977
     11974     11976     11978     11974     11976     11988     11977     11976     11978
     11977     11976     11988     11978     11976     11988     11971     11979     11980
     11971     11979     11981     11971     11979     11982     11980     11979     11981
     11980     11979     11982     11981     11979     11982     11979     11982     11983
     11982     11983     11984     11982     11983     11985     11984     11983     11985
     11983     11985     11986     11983     11985     11987     11983     11985     12035
     11986     11985     11987     11986     11985     12035     11987     11985     12035
     11976     11988     11989     11976     11988     11990     11976     11988     11991
     11989     11988     11990     11989     11988     11991     11990     11988     11991
     11988     11991     11992     11988     11991     11993     11988     11991     11994
     11992     11991     11993     11992     11991     11994     11993     11991     11994
     11991     11994     11995     11991     11994     11996     11991     11994     11997
     11995     11994     11996     11995     11994     11997     11996     11994     11997
     11994     11997     11998     11994     11997     11999     11994     11997     12000
     11998     11997     11999     11998     11997     12000     11999     11997     12000
     11997     12000     12001     11997     12000     12002     11997     12000     12003
     12001     12000     12002     12001     12000     12003     12002     12000     12003
     12000     12003     12004     12000     12003     12005     12000     12003     12006
     12004     12003     12005     12004     12003     12006     12005     12003     12006
     12003     12006     12007     12003     12006     12008     12007     12006     12008
     12006     12008     12009     12006     12008     12010     12009     12008     12010
     12008     12010     12011     12008     12010     12012     12008     12010     12013
     12011     12010     12012     12011     12010     12013     12012     12010     12013
     12010     12013     12014     12010     12013     12015     12010     12013     12016
     12014     12013     12015     12014     12013     12016     12015     12013     12016
     12013     12016     12017     12013     12016     12018     12013     12016     12019
     12017     12016     12018     12017     12016     12019     12018     12016     12019
     12016     12019     12020     12016     12019     12021     12016     12019     12022
     12020     12019     12021     12020     12019     12022     12021     12019     12022
     12019     12022     12023     12019     12022     12024     12019     12022     12025
     12023     12022     12024     12023     12022     12025     12024     12022     12025
     12022     12025     12026     12022     12025     12027     12022     12025     12028
     12026     12025     12027     12026     12025     12028     12027     12025     12028
     12025     12028     12029     12025     12028     12030     12025     12028     12031
     12029     12028     12030     12029     12028     12031     12030     12028     12031
     12028     12031     12032     12028     12031     12033     12028     12031     12034
     12032     12031     12033     12032     12031     12034     12033     12031     12034
     11985     12035     12036     11985     12035     12037     11985     12035     12038
     12036     12035     12037     12036     12035     12038     12037     12035     12038
     12035     12038     12039     12035     12038     12040     12035     12038     12041
     12039     12038     12040     12039     12038     12041     12040     12038     12041
     12038     12041     12042     12038     12041     12043     12038     12041     12044
     12042     12041     12043     12042     12041     12044     12043     12041     12044
     12041     12044     12045     12041     12044     12046     12041     12044     12047
     12045     12044     12046     12045     12044     12047     12046     12044     12047
     12044     12047     12048     12044     12047     12049     12044     12047     12050
     12048     12047     12049     12048     12047     12050     12049     12047     12050
     12047     12050     12051     12047     12050     12052     12047     12050     12053
     12051     12050     12052     12051     12050     12053     12052     12050     12053
     12050     12053     12054     12050     12053     12055     12050     12053     12056
     12054     12053     12055     12054     12053     12056     12055     12053     12056
     12053     12056     12057     12053     12056     12058     12053     12056     12059
     12057     12056     12058     12057     12056     12059     12058     12056     12059
     12056     12059     12060     12056     12059     12061     12056     12059     12062
     12060     12059     12061     12060     12059     12062     12061     12059     12062
     12059     12062     12063     12059     12062     12064     12059     12062     12065
     12063     12062     12064     12063     12062     12065     12064     12062     12065
     12062     12065     12066     12062     12065     12067     12062     12065     12068
     12066     12065     12067     12066     12065     12068     12067     12065     12068
     12065     12068     12069     12065     12068     12070     12065     12068     12071
     12069     12068     12070     12069     12068     12071     12070     12068     12071
     12068     12071     12072     12068     12071     12073     12068     12071     12074
     12072     12071     12073     12072     12071     12074     12073     12071     12074
     12071     12074     12075     12071     12074     12076     12071     12074     12077
     12075     12074     12076     12075     12074     12077     12076     12074     12077
     12079     12078     12082     12079     12078     12086     12079     12078     12090
     12082     12078     12086     12082     12078     12090     12086     12078     12090
     12078     12079     12080     12078     12079     12081     12078     12079     12094
     12080     12079     12081     12080     12079     12094     12081     12079     12094
     12078     12082     12083     12078     12082     12084     12078     12082     12085
     12083     12082     12084     12083     12082     12085     12084     12082     12085
     12078     12086     12087     12078     12086     12088     12078     12086     12089
     12087     12086     12088     12087     12086     12089     12088     12086     12089
     12078     12090     12091     12078     12090     12092     12078     12090     12093
     12091     12090     12092     12091     12090     12093     12092     12090     12093
     12079     12094     12095     12079     12094     12096     12079     12094     12100
     12095     12094     12096     12095     12094     12100     12096     12094     12100
     12098     12097     12099     12098     12097     12100     12098     12097     12101
     12099     12097     12100     12099     12097     12101     12100     12097     12101
     12094     12100     12097     12097     12101     12102     12101     12102     12103
     12101     12102     12104     12101     12102     12105     12103     12102     12104
     12103     12102     12105     12104     12102     12105     12102     12105     12106
     12102     12105     12107     12102     12105     12113     12106     12105     12107
     12106     12105     12113     12107     12105     12113     12105     12107     12108
     12107     12108     12109     12107     12108     12110     12109     12108     12110
     12108     12110     12111     12108     12110     12112     12108     12110     12122
     12111     12110     12112     12111     12110     12122     12112     12110     12122
     12105     12113     12114     12105     12113     12115     12105     12113     12116
     12114     12113     12115     12114     12113     12116     12115     12113     12116
     12113     12116     12117     12116     12117     12118     12116     12117     12119
     12118     12117     12119     12117     12119     12120     12117     12119     12121
     12117     12119     12169     12120     12119     12121     12120     12119     12169
     12121     12119     12169     12110     12122     12123     12110     12122     12124
     12110     12122     12125     12123     12122     12124     12123     12122     12125
     12124     12122     12125     12122     12125     12126     12122     12125     12127
     12122     12125     12128     12126     12125     12127     12126     12125     12128
     12127     12125     12128     12125     12128     12129     12125     12128     12130
     12125     12128     12131     12129     12128     12130     12129     12128     12131
     12130     12128     12131     12128     12131     12132     12128     12131     12133
     12128     12131     12134     12132     12131     12133     12132     12131     12134
     12133     12131     12134     12131     12134     12135     12131     12134     12136
     12131     12134     12137     12135     12134     12136     12135     12134     12137
     12136     12134     12137     12134     12137     12138     12134     12137     12139
     12134     12137     12140     12138     12137     12139     12138     12137     12140
     12139     12137     12140     12137     12140     12141     12137     12140     12142
     12141     12140     12142     12140     12142     12143     12140     12142     12144
     12143     12142     12144     12142     12144     12145     12142     12144     12146
     12142     12144     12147     12145     12144     12146     12145     12144     12147
     12146     12144     12147     12144     12147     12148     12144     12147     12149
     12144     12147     12150     12148     12147     12149     12148     12147     12150
     12149     12147     12150     12147     12150     12151     12147     12150     12152
     12147     12150     12153     12151     12150     12152     12151     12150     12153
     12152     12150     12153     12150     12153     12154     12150     12153     12155
     12150     12153     12156     12154     12153     12155     12154     12153     12156
     12155     12153     12156     12153     12156     12157     12153     12156     12158
     12153     12156     12159     12157     12156     12158     12157     12156     12159
     12158     12156     12159     12156     12159     12160     12156     12159     12161
     12156     12159     12162     12160     12159     12161     12160     12159     12162
     12161     12159     12162     12159     12162     12163     12159     12162     12164
     12159     12162     12165     12163     12162     12164     12163     12162     12165
     12164     12162     12165     12162     12165     12166     12162     12165     12167
     12162     12165     12168     12166     12165     12167     12166     12165     12168
     12167     12165     12168     12119     12169     12170     12119     12169     12171
     12119     12169     12172     12170     12169     12171     12170     12169     12172
     12171     12169     12172     12169     12172     12173     12169     12172     12174
     12169     12172     12175     12173     12172     12174     12173     12172     12175
     12174     12172     12175     12172     12175     12176     12172     12175     12177
     12172     12175     12178     12176     12175     12177     12176     12175     12178
     12177     12175     12178     12175     12178     12179     12175     12178     12180
     12175     12178     12181     12179     12178     12180     12179     12178     12181
     12180     12178     12181     12178     12181     12182     12178     12181     12183
     12178     12181     12184     12182     12181     12183     12182     12181     12184
     12183     12181     12184     12181     12184     12185     12181     12184     12186
     12181     12184     12187     12185     12184     12186     12185     12184     12187
     12186     12184     12187     12184     12187     12188     12184     12187     12189
     12184     12187     12190     12188     12187     12189     12188     12187     12190
     12189     12187     12190     12187     12190     12191     12187     12190     12192
     12187     12190     12193     12191     12190     12192     12191     12190     12193
     12192     12190     12193     12190     12193     12194     12190     12193     12195
     12190     12193     12196     12194     12193     12195     12194     12193     12196
     12195     12193     12196     12193     12196     12197     12193     12196     12198
     12193     12196     12199     12197     12196     12198     12197     12196     12199
     12198     12196     12199     12196     12199     12200     12196     12199     12201
     12196     12199     12202     12200     12199     12201     12200     12199     12202
     12201     12199     12202     12199     12202     12203     12199     12202     12204
     12199     12202     12205     12203     12202     12204     12203     12202     12205
     12204     12202     12205     12202     12205     12206     12202     12205     12207
     12202     12205     12208     12206     12205     12207     12206     12205     12208
     12207     12205     12208     12205     12208     12209     12205     12208     12210
     12205     12208     12211     12209     12208     12210     12209     12208     12211
     12210     12208     12211     12213     12212     12214     12213     12212     12215
     12213     12212     12216     12214     12212     12215     12214     12212     12216
     12215     12212     12216     12212     12216     12217     12212     12216     12218
     12212     12216     12221     12217     12216     12218     12217     12216     12221
     12218     12216     12221     12216     12218     12219     12216     12218     12220
     12219     12218     12220     12216     12221     12222     12216     12221     12223
     12216     12221     12227     12222     12221     12223     12222     12221     12227
     12223     12221     12227     12225     12224     12226     12225     12224     12227
     12225     12224     12228     12226     12224     12227     12226     12224     12228
     12227     12224     12228     12221     12227     12224     12224     12228     12229
     12228     12229     12230     12228     12229     12231     12228     12229     12232
     12230     12229     12231     12230     12229     12232     12231     12229     12232
     12229     12232     12233     12229     12232     12234     12229     12232     12240
     12233     12232     12234     12233     12232     12240     12234     12232     12240
     12232     12234     12235     12234     12235     12236     12234     12235     12237
     12236     12235     12237     12235     12237     12238     12235     12237     12239
     12235     12237     12249     12238     12237     12239     12238     12237     12249
     12239     12237     12249     12232     12240     12241     12232     12240     12242
     12232     12240     12243     12241     12240     12242     12241     12240     12243
     12242     12240     12243     12240     12243     12244     12243     12244     12245
     12243     12244     12246     12245     12244     12246     12244     12246     12247
     12244     12246     12248     12244     12246     12296     12247     12246     12248
     12247     12246     12296     12248     12246     12296     12237     12249     12250
     12237     12249     12251     12237     12249     12252     12250     12249     12251
     12250     12249     12252     12251     12249     12252     12249     12252     12253
     12249     12252     12254     12249     12252     12255     12253     12252     12254
     12253     12252     12255     12254     12252     12255     12252     12255     12256
     12252     12255     12257     12252     12255     12258     12256     12255     12257
     12256     12255     12258     12257     12255     12258     12255     12258     12259
     12255     12258     12260     12255     12258     12261     12259     12258     12260
     12259     12258     12261     12260     12258     12261     12258     12261     12262
     12258     12261     12263     12258     12261     12264     12262     12261     12263
     12262     12261     12264     12263     12261     12264     12261     12264     12265
     12261     12264     12266     12261     12264     12267     12265     12264     12266
     12265     12264     12267     12266     12264     12267     12264     12267     12268
     12264     12267     12269     12268     12267     12269     12267     12269     12270
     12267     12269     12271     12270     12269     12271     12269     12271     12272
     12269     12271     12273     12269     12271     12274     12272     12271     12273
     12272     12271     12274     12273     12271     12274     12271     12274     12275
     12271     12274     12276     12271     12274     12277     12275     12274     12276
     12275     12274     12277     12276     12274     12277     12274     12277     12278
     12274     12277     12279     12274     12277     12280     12278     12277     12279
     12278     12277     12280     12279     12277     12280     12277     12280     12281
     12277     12280     12282     12277     12280     12283     12281     12280     12282
     12281     12280     12283     12282     12280     12283     12280     12283     12284
     12280     12283     12285     12280     12283     12286     12284     12283     12285
     12284     12283     12286     12285     12283     12286     12283     12286     12287
     12283     12286     12288     12283     12286     12289     12287     12286     12288
     12287     12286     12289     12288     12286     12289     12286     12289     12290
     12286     12289     12291     12286     12289     12292     12290     12289     12291
     12290     12289     12292     12291     12289     12292     12289     12292     12293
     12289     12292     12294     12289     12292     12295     12293     12292     12294
     12293     12292     12295     12294     12292     12295     12246     12296     12297
     12246     12296     12298     12246     12296     12299     12297     12296     12298
     12297     12296     12299     12298     12296     12299     12296     12299     12300
     12296     12299     12301     12296     12299     12302     12300     12299     12301
     12300     12299     12302     12301     12299     12302     12299     12302     12303
     12299     12302     12304     12299     12302     12305     12303     12302     12304
     12303     12302     12305     12304     12302     12305     12302     12305     12306
     12302     12305     12307     12302     12305     12308     12306     12305     12307
     12306     12305     12308     12307     12305     12308     12305     12308     12309
     12305     12308     12310     12305     12308     12311     12309     12308     12310
     12309     12308     12311     12310     12308     12311     12308     12311     12312
     12308     12311     12313     12308     12311     12314     12312     12311     12313
     12312     12311     12314     12313     12311     12314     12311     12314     12315
     12311     12314     12316     12311     12314     12317     12315     12314     12316
     12315     12314     12317     12316     12314     12317     12314     12317     12318
     12314     12317     12319     12314     12317     12320     12318     12317     12319
     12318     12317     12320     12319     12317     12320     12317     12320     12321
     12317     12320     12322     12317     12320     12323     12321     12320     12322
     12321     12320     12323     12322     12320     12323     12320     12323     12324
     12320     12323     12325     12320     12323     12326     12324     12323     12325
     12324     12323     12326     12325     12323     12326     12323     12326     12327
     12323     12326     12328     12323     12326     12329     12327     12326     12328
     12327     12326     12329     12328     12326     12329     12326     12329     12330
     12326     12329     12331     12326     12329     12332     12330     12329     12331
     12330     12329     12332     12331     12329     12332     12329     12332     12333
     12329     12332     12334     12329     12332     12335     12333     12332     12334
     12333     12332     12335     12334     12332     12335     12332     12335     12336
     12332     12335     12337     12332     12335     12338     12336     12335     12337
     12336     12335     12338     12337     12335     12338     12340     12339     12343
     12340     12339     12347     12340     12339     12351     12343     12339     12347
     12343     12339     12351     12347     12339     12351     12339     12340     12341
     12339     12340     12342     12339     12340     12355     12341     12340     12342
     12341     12340     12355     12342     12340     12355     12339     12343     12344
     12339     12343     12345     12339     12343     12346     12344     12343     12345
     12344     12343     12346     12345     12343     12346     12339     12347     12348
     12339     12347     12349     12339     12347     12350     12348     12347     12349
     12348     12347     12350     12349     12347     12350     12339     12351     12352
     12339     12351     12353     12339     12351     12354     12352     12351     12353
     12352     12351     12354     12353     12351     12354     12340     12355     12356
     12340     12355     12357     12340     12355     12361     12356     12355     12357
     12356     12355     12361     12357     12355     12361     12359     12358     12360
     12359     12358     12361     12359     12358     12362     12360     12358     12361
     12360     12358     12362     12361     12358     12362     12355     12361     12358
     12358     12362     12363     12362     12363     12364     12362     12363     12365
     12362     12363     12366     12364     12363     12365     12364     12363     12366
     12365     12363     12366     12363     12366     12367     12363     12366     12368
     12363     12366     12374     12367     12366     12368     12367     12366     12374
     12368     12366     12374     12366     12368     12369     12368     12369     12370
     12368     12369     12371     12370     12369     12371     12369     12371     12372
     12369     12371     12373     12369     12371     12383     12372     12371     12373
     12372     12371     12383     12373     12371     12383     12366     12374     12375
     12366     12374     12376     12366     12374     12377     12375     12374     12376
     12375     12374     12377     12376     12374     12377     12374     12377     12378
     12377     12378     12379     12377     12378     12380     12379     12378     12380
     12378     12380     12381     12378     12380     12382     12378     12380     12430
     12381     12380     12382     12381     12380     12430     12382     12380     12430
     12371     12383     12384     12371     12383     12385     12371     12383     12386
     12384     12383     12385     12384     12383     12386     12385     12383     12386
     12383     12386     12387     12383     12386     12388     12383     12386     12389
     12387     12386     12388     12387     12386     12389     12388     12386     12389
     12386     12389     12390     12386     12389     12391     12386     12389     12392
     12390     12389     12391     12390     12389     12392     12391     12389     12392
     12389     12392     12393     12389     12392     12394     12389     12392     12395
     12393     12392     12394     12393     12392     12395     12394     12392     12395
     12392     12395     12396     12392     12395     12397     12392     12395     12398
     12396     12395     12397     12396     12395     12398     12397     12395     12398
     12395     12398     12399     12395     12398     12400     12395     12398     12401
     12399     12398     12400     12399     12398     12401     12400     12398     12401
     12398     12401     12402     12398     12401     12403     12402     12401     12403
     12401     12403     12404     12401     12403     12405     12404     12403     12405
     12403     12405     12406     12403     12405     12407     12403     12405     12408
     12406     12405     12407     12406     12405     12408     12407     12405     12408
     12405     12408     12409     12405     12408     12410     12405     12408     12411
     12409     12408     12410     12409     12408     12411     12410     12408     12411
     12408     12411     12412     12408     12411     12413     12408     12411     12414
     12412     12411     12413     12412     12411     12414     12413     12411     12414
     12411     12414     12415     12411     12414     12416     12411     12414     12417
     12415     12414     12416     12415     12414     12417     12416     12414     12417
     12414     12417     12418     12414     12417     12419     12414     12417     12420
     12418     12417     12419     12418     12417     12420     12419     12417     12420
     12417     12420     12421     12417     12420     12422     12417     12420     12423
     12421     12420     12422     12421     12420     12423     12422     12420     12423
     12420     12423     12424     12420     12423     12425     12420     12423     12426
     12424     12423     12425     12424     12423     12426     12425     12423     12426
     12423     12426     12427     12423     12426     12428     12423     12426     12429
     12427     12426     12428     12427     12426     12429     12428     12426     12429
     12380     12430     12431     12380     12430     12432     12380     12430     12433
     12431     12430     12432     12431     12430     12433     12432     12430     12433
     12430     12433     12434     12430     12433     12435     12430     12433     12436
     12434     12433     12435     12434     12433     12436     12435     12433     12436
     12433     12436     12437     12433     12436     12438     12433     12436     12439
     12437     12436     12438     12437     12436     12439     12438     12436     12439
     12436     12439     12440     12436     12439     12441     12436     12439     12442
     12440     12439     12441     12440     12439     12442     12441     12439     12442
     12439     12442     12443     12439     12442     12444     12439     12442     12445
     12443     12442     12444     12443     12442     12445     12444     12442     12445
     12442     12445     12446     12442     12445     12447     12442     12445     12448
     12446     12445     12447     12446     12445     12448     12447     12445     12448
     12445     12448     12449     12445     12448     12450     12445     12448     12451
     12449     12448     12450     12449     12448     12451     12450     12448     12451
     12448     12451     12452     12448     12451     12453     12448     12451     12454
     12452     12451     12453     12452     12451     12454     12453     12451     12454
     12451     12454     12455     12451     12454     12456     12451     12454     12457
     12455     12454     12456     12455     12454     12457     12456     12454     12457
     12454     12457     12458     12454     12457     12459     12454     12457     12460
     12458     12457     12459     12458     12457     12460     12459     12457     12460
     12457     12460     12461     12457     12460     12462     12457     12460     12463
     12461     12460     12462     12461     12460     12463     12462     12460     12463
     12460     12463     12464     12460     12463     12465     12460     12463     12466
     12464     12463     12465     12464     12463     12466     12465     12463     12466
     12463     12466     12467     12463     12466     12468     12463     12466     12469
     12467     12466     12468     12467     12466     12469     12468     12466     12469
     12466     12469     12470     12466     12469     12471     12466     12469     12472
     12470     12469     12471     12470     12469     12472     12471     12469     12472
     12474     12473     12477     12474     12473     12481     12474     12473     12485
     12477     12473     12481     12477     12473     12485     12481     12473     12485
     12473     12474     12475     12473     12474     12476     12473     12474     12489
     12475     12474     12476     12475     12474     12489     12476     12474     12489
     12473     12477     12478     12473     12477     12479     12473     12477     12480
     12478     12477     12479     12478     12477     12480     12479     12477     12480
     12473     12481     12482     12473     12481     12483     12473     12481     12484
     12482     12481     12483     12482     12481     12484     12483     12481     12484
     12473     12485     12486     12473     12485     12487     12473     12485     12488
     12486     12485     12487     12486     12485     12488     12487     12485     12488
     12474     12489     12490     12474     12489     12491     12474     12489     12495
     12490     12489     12491     12490     12489     12495     12491     12489     12495
     12493     12492     12494     12493     12492     12495     12493     12492     12496
     12494     12492     12495     12494     12492     12496     12495     12492     12496
     12489     12495     12492     12492     12496     12497     12496     12497     12498
     12496     12497     12499     12496     12497     12500     12498     12497     12499
     12498     12497     12500     12499     12497     12500     12497     12500     12501
     12497     12500     12502     12497     12500     12508     12501     12500     12502
     12501     12500     12508     12502     12500     12508     12500     12502     12503
     12502     12503     12504     12502     12503     12505     12504     12503     12505
     12503     12505     12506     12503     12505     12507     12503     12505     12517
     12506     12505     12507     12506     12505     12517     12507     12505     12517
     12500     12508     12509     12500     12508     12510     12500     12508     12511
     12509     12508     12510     12509     12508     12511     12510     12508     12511
     12508     12511     12512     12511     12512     12513     12511     12512     12514
     12513     12512     12514     12512     12514     12515     12512     12514     12516
     12512     12514     12564     12515     12514     12516     12515     12514     12564
     12516     12514     12564     12505     12517     12518     12505     12517     12519
     12505     12517     12520     12518     12517     12519     12518     12517     12520
     12519     12517     12520     12517     12520     12521     12517     12520     12522
     12517     12520     12523     12521     12520     12522     12521     12520     12523
     12522     12520     12523     12520     12523     12524     12520     12523     12525
     12520     12523     12526     12524     12523     12525     12524     12523     12526
     12525     12523     12526     12523     12526     12527     12523     12526     12528
     12523     12526     12529     12527     12526     12528     12527     12526     12529
     12528     12526     12529     12526     12529     12530     12526     12529     12531
     12526     12529     12532     12530     12529     12531     12530     12529     12532
     12531     12529     12532     12529     12532     12533     12529     12532     12534
     12529     12532     12535     12533     12532     12534     12533     12532     12535
     12534     12532     12535     12532     12535     12536     12532     12535     12537
     12536     12535     12537     12535     12537     12538     12535     12537     12539
     12538     12537     12539     12537     12539     12540     12537     12539     12541
     12537     12539     12542     12540     12539     12541     12540     12539     12542
     12541     12539     12542     12539     12542     12543     12539     12542     12544
     12539     12542     12545     12543     12542     12544     12543     12542     12545
     12544     12542     12545     12542     12545     12546     12542     12545     12547
     12542     12545     12548     12546     12545     12547     12546     12545     12548
     12547     12545     12548     12545     12548     12549     12545     12548     12550
     12545     12548     12551     12549     12548     12550     12549     12548     12551
     12550     12548     12551     12548     12551     12552     12548     12551     12553
     12548     12551     12554     12552     12551     12553     12552     12551     12554
     12553     12551     12554     12551     12554     12555     12551     12554     12556
     12551     12554     12557     12555     12554     12556     12555     12554     12557
     12556     12554     12557     12554     12557     12558     12554     12557     12559
     12554     12557     12560     12558     12557     12559     12558     12557     12560
     12559     12557     12560     12557     12560     12561     12557     12560     12562
     12557     12560     12563     12561     12560     12562     12561     12560     12563
     12562     12560     12563     12514     12564     12565     12514     12564     12566
     12514     12564     12567     12565     12564     12566     12565     12564     12567
     12566     12564     12567     12564     12567     12568     12564     12567     12569
     12564     12567     12570     12568     12567     12569     12568     12567     12570
     12569     12567     12570     12567     12570     12571     12567     12570     12572
     12567     12570     12573     12571     12570     12572     12571     12570     12573
     12572     12570     12573     12570     12573     12574     12570     12573     12575
     12570     12573     12576     12574     12573     12575     12574     12573     12576
     12575     12573     12576     12573     12576     12577     12573     12576     12578
     12573     12576     12579     12577     12576     12578     12577     12576     12579
     12578     12576     12579     12576     12579     12580     12576     12579     12581
     12576     12579     12582     12580     12579     12581     12580     12579     12582
     12581     12579     12582     12579     12582     12583     12579     12582     12584
     12579     12582     12585     12583     12582     12584     12583     12582     12585
     12584     12582     12585     12582     12585     12586     12582     12585     12587
     12582     12585     12588     12586     12585     12587     12586     12585     12588
     12587     12585     12588     12585     12588     12589     12585     12588     12590
     12585     12588     12591     12589     12588     12590     12589     12588     12591
     12590     12588     12591     12588     12591     12592     12588     12591     12593
     12588     12591     12594     12592     12591     12593     12592     12591     12594
     12593     12591     12594     12591     12594     12595     12591     12594     12596
     12591     12594     12597     12595     12594     12596     12595     12594     12597
     12596     12594     12597     12594     12597     12598     12594     12597     12599
     12594     12597     12600     12598     12597     12599     12598     12597     12600
     12599     12597     12600     12597     12600     12601     12597     12600     12602
     12597     12600     12603     12601     12600     12602     12601     12600     12603
     12602     12600     12603     12600     12603     12604     12600     12603     12605
     12600     12603     12606     12604     12603     12605     12604     12603     12606
     12605     12603     12606     12608     12607     12611     12608     12607     12615
     12608     12607     12619     12611     12607     12615     12611     12607     12619
     12615     12607     12619     12607     12608     12609     12607     12608     12610
     12607     12608     12623     12609     12608     12610     12609     12608     12623
     12610     12608     12623     12607     12611     12612     12607     12611     12613
     12607     12611     12614     12612     12611     12613     12612     12611     12614
     12613     12611     12614     12607     12615     12616     12607     12615     12617
     12607     12615     12618     12616     12615     12617     12616     12615     12618
     12617     12615     12618     12607     12619     12620     12607     12619     12621
     12607     12619     12622     12620     12619     12621     12620     12619     12622
     12621     12619     12622     12608     12623     12624     12608     12623     12625
     12608     12623     12629     12624     12623     12625     12624     12623     12629
     12625     12623     12629     12627     12626     12628     12627     12626     12629
     12627     12626     12630     12628     12626     12629     12628     12626     12630
     12629     12626     12630     12623     12629     12626     12626     12630     12631
     12630     12631     12632     12630     12631     12633     12630     12631     12634
     12632     12631     12633     12632     12631     12634     12633     12631     12634
     12631     12634     12635     12631     12634     12636     12631     12634     12642
     12635     12634     12636     12635     12634     12642     12636     12634     12642
     12634     12636     12637     12636     12637     12638     12636     12637     12639
     12638     12637     12639     12637     12639     12640     12637     12639     12641
     12637     12639     12651     12640     12639     12641     12640     12639     12651
     12641     12639     12651     12634     12642     12643     12634     12642     12644
     12634     12642     12645     12643     12642     12644     12643     12642     12645
     12644     12642     12645     12642     12645     12646     12645     12646     12647
     12645     12646     12648     12647     12646     12648     12646     12648     12649
     12646     12648     12650     12646     12648     12698     12649     12648     12650
     12649     12648     12698     12650     12648     12698     12639     12651     12652
     12639     12651     12653     12639     12651     12654     12652     12651     12653
     12652     12651     12654     12653     12651     12654     12651     12654     12655
     12651     12654     12656     12651     12654     12657     12655     12654     12656
     12655     12654     12657     12656     12654     12657     12654     12657     12658
     12654     12657     12659     12654     12657     12660     12658     12657     12659
     12658     12657     12660     12659     12657     12660     12657     12660     12661
     12657     12660     12662     12657     12660     12663     12661     12660     12662
     12661     12660     12663     12662     12660     12663     12660     12663     12664
     12660     12663     12665     12660     12663     12666     12664     12663     12665
     12664     12663     12666     12665     12663     12666     12663     12666     12667
     12663     12666     12668     12663     12666     12669     12667     12666     12668
     12667     12666     12669     12668     12666     12669     12666     12669     12670
     12666     12669     12671     12670     12669     12671     12669     12671     12672
     12669     12671     12673     12672     12671     12673     12671     12673     12674
     12671     12673     12675     12671     12673     12676     12674     12673     12675
     12674     12673     12676     12675     12673     12676     12673     12676     12677
     12673     12676     12678     12673     12676     12679     12677     12676     12678
     12677     12676     12679     12678     12676     12679     12676     12679     12680
     12676     12679     12681     12676     12679     12682     12680     12679     12681
     12680     12679     12682     12681     12679     12682     12679     12682     12683
     12679     12682     12684     12679     12682     12685     12683     12682     12684
     12683     12682     12685     12684     12682     12685     12682     12685     12686
     12682     12685     12687     12682     12685     12688     12686     12685     12687
     12686     12685     12688     12687     12685     12688     12685     12688     12689
     12685     12688     12690     12685     12688     12691     12689     12688     12690
     12689     12688     12691     12690     12688     12691     12688     12691     12692
     12688     12691     12693     12688     12691     12694     12692     12691     12693
     12692     12691     12694     12693     12691     12694     12691     12694     12695
     12691     12694     12696     12691     12694     12697     12695     12694     12696
     12695     12694     12697     12696     12694     12697     12648     12698     12699
     12648     12698     12700     12648     12698     12701     12699     12698     12700
     12699     12698     12701     12700     12698     12701     12698     12701     12702
     12698     12701     12703     12698     12701     12704     12702     12701     12703
     12702     12701     12704     12703     12701     12704     12701     12704     12705
     12701     12704     12706     12701     12704     12707     12705     12704     12706
     12705     12704     12707     12706     12704     12707     12704     12707     12708
     12704     12707     12709     12704     12707     12710     12708     12707     12709
     12708     12707     12710     12709     12707     12710     12707     12710     12711
     12707     12710     12712     12707     12710     12713     12711     12710     12712
     12711     12710     12713     12712     12710     12713     12710     12713     12714
     12710     12713     12715     12710     12713     12716     12714     12713     12715
     12714     12713     12716     12715     12713     12716     12713     12716     12717
     12713     12716     12718     12713     12716     12719     12717     12716     12718
     12717     12716     12719     12718     12716     12719     12716     12719     12720
     12716     12719     12721     12716     12719     12722     12720     12719     12721
     12720     12719     12722     12721     12719     12722     12719     12722     12723
     12719     12722     12724     12719     12722     12725     12723     12722     12724
     12723     12722     12725     12724     12722     12725     12722     12725     12726
     12722     12725     12727     12722     12725     12728     12726     12725     12727
     12726     12725     12728     12727     12725     12728     12725     12728     12729
     12725     12728     12730     12725     12728     12731     12729     12728     12730
     12729     12728     12731     12730     12728     12731     12728     12731     12732
     12728     12731     12733     12728     12731     12734     12732     12731     12733
     12732     12731     12734     12733     12731     12734     12731     12734     12735
     12731     12734     12736     12731     12734     12737     12735     12734     12736
     12735     12734     12737     12736     12734     12737     12734     12737     12738
     12734     12737     12739     12734     12737     12740     12738     12737     12739
     12738     12737     12740     12739     12737     12740     12742     12741     12745
     12742     12741     12749     12742     12741     12753     12745     12741     12749
     12745     12741     12753     12749     12741     12753     12741     12742     12743
     12741     12742     12744     12741     12742     12757     12743     12742     12744
     12743     12742     12757     12744     12742     12757     12741     12745     12746
     12741     12745     12747     12741     12745     12748     12746     12745     12747
     12746     12745     12748     12747     12745     12748     12741     12749     12750
     12741     12749     12751     12741     12749     12752     12750     12749     12751
     12750     12749     12752     12751     12749     12752     12741     12753     12754
     12741     12753     12755     12741     12753     12756     12754     12753     12755
     12754     12753     12756     12755     12753     12756     12742     12757     12758
     12742     12757     12759     12742     12757     12763     12758     12757     12759
     12758     12757     12763     12759     12757     12763     12761     12760     12762
     12761     12760     12763     12761     12760     12764     12762     12760     12763
     12762     12760     12764     12763     12760     12764     12757     12763     12760
     12760     12764     12765     12764     12765     12766     12764     12765     12767
     12764     12765     12768     12766     12765     12767     12766     12765     12768
     12767     12765     12768     12765     12768     12769     12765     12768     12770
     12765     12768     12776     12769     12768     12770     12769     12768     12776
     12770     12768     12776     12768     12770     12771     12770     12771     12772
     12770     12771     12773     12772     12771     12773     12771     12773     12774
     12771     12773     12775     12771     12773     12785     12774     12773     12775
     12774     12773     12785     12775     12773     12785     12768     12776     12777
     12768     12776     12778     12768     12776     12779     12777     12776     12778
     12777     12776     12779     12778     12776     12779     12776     12779     12780
     12779     12780     12781     12779     12780     12782     12781     12780     12782
     12780     12782     12783     12780     12782     12784     12780     12782     12832
     12783     12782     12784     12783     12782     12832     12784     12782     12832
     12773     12785     12786     12773     12785     12787     12773     12785     12788
     12786     12785     12787     12786     12785     12788     12787     12785     12788
     12785     12788     12789     12785     12788     12790     12785     12788     12791
     12789     12788     12790     12789     12788     12791     12790     12788     12791
     12788     12791     12792     12788     12791     12793     12788     12791     12794
     12792     12791     12793     12792     12791     12794     12793     12791     12794
     12791     12794     12795     12791     12794     12796     12791     12794     12797
     12795     12794     12796     12795     12794     12797     12796     12794     12797
     12794     12797     12798     12794     12797     12799     12794     12797     12800
     12798     12797     12799     12798     12797     12800     12799     12797     12800
     12797     12800     12801     12797     12800     12802     12797     12800     12803
     12801     12800     12802     12801     12800     12803     12802     12800     12803
     12800     12803     12804     12800     12803     12805     12804     12803     12805
     12803     12805     12806     12803     12805     12807     12806     12805     12807
     12805     12807     12808     12805     12807     12809     12805     12807     12810
     12808     12807     12809     12808     12807     12810     12809     12807     12810
     12807     12810     12811     12807     12810     12812     12807     12810     12813
     12811     12810     12812     12811     12810     12813     12812     12810     12813
     12810     12813     12814     12810     12813     12815     12810     12813     12816
     12814     12813     12815     12814     12813     12816     12815     12813     12816
     12813     12816     12817     12813     12816     12818     12813     12816     12819
     12817     12816     12818     12817     12816     12819     12818     12816     12819
     12816     12819     12820     12816     12819     12821     12816     12819     12822
     12820     12819     12821     12820     12819     12822     12821     12819     12822
     12819     12822     12823     12819     12822     12824     12819     12822     12825
     12823     12822     12824     12823     12822     12825     12824     12822     12825
     12822     12825     12826     12822     12825     12827     12822     12825     12828
     12826     12825     12827     12826     12825     12828     12827     12825     12828
     12825     12828     12829     12825     12828     12830     12825     12828     12831
     12829     12828     12830     12829     12828     12831     12830     12828     12831
     12782     12832     12833     12782     12832     12834     12782     12832     12835
     12833     12832     12834     12833     12832     12835     12834     12832     12835
     12832     12835     12836     12832     12835     12837     12832     12835     12838
     12836     12835     12837     12836     12835     12838     12837     12835     12838
     12835     12838     12839     12835     12838     12840     12835     12838     12841
     12839     12838     12840     12839     12838     12841     12840     12838     12841
     12838     12841     12842     12838     12841     12843     12838     12841     12844
     12842     12841     12843     12842     12841     12844     12843     12841     12844
     12841     12844     12845     12841     12844     12846     12841     12844     12847
     12845     12844     12846     12845     12844     12847     12846     12844     12847
     12844     12847     12848     12844     12847     12849     12844     12847     12850
     12848     12847     12849     12848     12847     12850     12849     12847     12850
     12847     12850     12851     12847     12850     12852     12847     12850     12853
     12851     12850     12852     12851     12850     12853     12852     12850     12853
     12850     12853     12854     12850     12853     12855     12850     12853     12856
     12854     12853     12855     12854     12853     12856     12855     12853     12856
     12853     12856     12857     12853     12856     12858     12853     12856     12859
     12857     12856     12858     12857     12856     12859     12858     12856     12859
     12856     12859     12860     12856     12859     12861     12856     12859     12862
     12860     12859     12861     12860     12859     12862     12861     12859     12862
     12859     12862     12863     12859     12862     12864     12859     12862     12865
     12863     12862     12864     12863     12862     12865     12864     12862     12865
     12862     12865     12866     12862     12865     12867     12862     12865     12868
     12866     12865     12867     12866     12865     12868     12867     12865     12868
     12865     12868     12869     12865     12868     12870     12865     12868     12871
     12869     12868     12870     12869     12868     12871     12870     12868     12871
     12868     12871     12872     12868     12871     12873     12868     12871     12874
     12872     12871     12873     12872     12871     12874     12873     12871     12874
     12876     12875     12879     12876     12875     12883     12876     12875     12887
     12879     12875     12883     12879     12875     12887     12883     12875     12887
     12875     12876     12877     12875     12876     12878     12875     12876     12891
     12877     12876     12878     12877     12876     12891     12878     12876     12891
     12875     12879     12880     12875     12879     12881     12875     12879     12882
     12880     12879     12881     12880     12879     12882     12881     12879     12882
     12875     12883     12884     12875     12883     12885     12875     12883     12886
     12884     12883     12885     12884     12883     12886     12885     12883     12886
     12875     12887     12888     12875     12887     12889     12875     12887     12890
     12888     12887     12889     12888     12887     12890     12889     12887     12890
     12876     12891     12892     12876     12891     12893     12876     12891     12897
     12892     12891     12893     12892     12891     12897     12893     12891     12897
     12895     12894     12896     12895     12894     12897     12895     12894     12898
     12896     12894     12897     12896     12894     12898     12897     12894     12898
     12891     12897     12894     12894     12898     12899     12898     12899     12900
     12898     12899     12901     12898     12899     12902     12900     12899     12901
     12900     12899     12902     12901     12899     12902     12899     12902     12903
     12899     12902     12904     12899     12902     12910     12903     12902     12904
     12903     12902     12910     12904     12902     12910     12902     12904     12905
     12904     12905     12906     12904     12905     12907     12906     12905     12907
     12905     12907     12908     12905     12907     12909     12905     12907     12919
     12908     12907     12909     12908     12907     12919     12909     12907     12919
     12902     12910     12911     12902     12910     12912     12902     12910     12913
     12911     12910     12912     12911     12910     12913     12912     12910     12913
     12910     12913     12914     12913     12914     12915     12913     12914     12916
     12915     12914     12916     12914     12916     12917     12914     12916     12918
     12914     12916     12966     12917     12916     12918     12917     12916     12966
     12918     12916     12966     12907     12919     12920     12907     12919     12921
     12907     12919     12922     12920     12919     12921     12920     12919     12922
     12921     12919     12922     12919     12922     12923     12919     12922     12924
     12919     12922     12925     12923     12922     12924     12923     12922     12925
     12924     12922     12925     12922     12925     12926     12922     12925     12927
     12922     12925     12928     12926     12925     12927     12926     12925     12928
     12927     12925     12928     12925     12928     12929     12925     12928     12930
     12925     12928     12931     12929     12928     12930     12929     12928     12931
     12930     12928     12931     12928     12931     12932     12928     12931     12933
     12928     12931     12934     12932     12931     12933     12932     12931     12934
     12933     12931     12934     12931     12934     12935     12931     12934     12936
     12931     12934     12937     12935     12934     12936     12935     12934     12937
     12936     12934     12937     12934     12937     12938     12934     12937     12939
     12938     12937     12939     12937     12939     12940     12937     12939     12941
     12940     12939     12941     12939     12941     12942     12939     12941     12943
     12939     12941     12944     12942     12941     12943     12942     12941     12944
     12943     12941     12944     12941     12944     12945     12941     12944     12946
     12941     12944     12947     12945     12944     12946     12945     12944     12947
     12946     12944     12947     12944     12947     12948     12944     12947     12949
     12944     12947     12950     12948     12947     12949     12948     12947     12950
     12949     12947     12950     12947     12950     12951     12947     12950     12952
     12947     12950     12953     12951     12950     12952     12951     12950     12953
     12952     12950     12953     12950     12953     12954     12950     12953     12955
     12950     12953     12956     12954     12953     12955     12954     12953     12956
     12955     12953     12956     12953     12956     12957     12953     12956     12958
     12953     12956     12959     12957     12956     12958     12957     12956     12959
     12958     12956     12959     12956     12959     12960     12956     12959     12961
     12956     12959     12962     12960     12959     12961     12960     12959     12962
     12961     12959     12962     12959     12962     12963     12959     12962     12964
     12959     12962     12965     12963     12962     12964     12963     12962     12965
     12964     12962     12965     12916     12966     12967     12916     12966     12968
     12916     12966     12969     12967     12966     12968     12967     12966     12969
     12968     12966     12969     12966     12969     12970     12966     12969     12971
     12966     12969     12972     12970     12969     12971     12970     12969     12972
     12971     12969     12972     12969     12972     12973     12969     12972     12974
     12969     12972     12975     12973     12972     12974     12973     12972     12975
     12974     12972     12975     12972     12975     12976     12972     12975     12977
     12972     12975     12978     12976     12975     12977     12976     12975     12978
     12977     12975     12978     12975     12978     12979     12975     12978     12980
     12975     12978     12981     12979     12978     12980     12979     12978     12981
     12980     12978     12981     12978     12981     12982     12978     12981     12983
     12978     12981     12984     12982     12981     12983     12982     12981     12984
     12983     12981     12984     12981     12984     12985     12981     12984     12986
     12981     12984     12987     12985     12984     12986     12985     12984     12987
     12986     12984     12987     12984     12987     12988     12984     12987     12989
     12984     12987     12990     12988     12987     12989     12988     12987     12990
     12989     12987     12990     12987     12990     12991     12987     12990     12992
     12987     12990     12993     12991     12990     12992     12991     12990     12993
     12992     12990     12993     12990     12993     12994     12990     12993     12995
     12990     12993     12996     12994     12993     12995     12994     12993     12996
     12995     12993     12996     12993     12996     12997     12993     12996     12998
     12993     12996     12999     12997     12996     12998     12997     12996     12999
     12998     12996     12999     12996     12999     13000     12996     12999     13001
     12996     12999     13002     13000     12999     13001     13000     12999     13002
     13001     12999     13002     12999     13002     13003     12999     13002     13004
     12999     13002     13005     13003     13002     13004     13003     13002     13005
     13004     13002     13005     13002     13005     13006     13002     13005     13007
     13002     13005     13008     13006     13005     13007     13006     13005     13008
     13007     13005     13008     13010     13009     13013     13010     13009     13017
     13010     13009     13021     13013     13009     13017     13013     13009     13021
     13017     13009     13021     13009     13010     13011     13009     13010     13012
     13009     13010     13025     13011     13010     13012     13011     13010     13025
     13012     13010     13025     13009     13013     13014     13009     13013     13015
     13009     13013     13016     13014     13013     13015     13014     13013     13016
     13015     13013     13016     13009     13017     13018     13009     13017     13019
     13009     13017     13020     13018     13017     13019     13018     13017     13020
     13019     13017     13020     13009     13021     13022     13009     13021     13023
     13009     13021     13024     13022     13021     13023     13022     13021     13024
     13023     13021     13024     13010     13025     13026     13010     13025     13027
     13010     13025     13031     13026     13025     13027     13026     13025     13031
     13027     13025     13031     13029     13028     13030     13029     13028     13031
     13029     13028     13032     13030     13028     13031     13030     13028     13032
     13031     13028     13032     13025     13031     13028     13028     13032     13033
     13032     13033     13034     13032     13033     13035     13032     13033     13036
     13034     13033     13035     13034     13033     13036     13035     13033     13036
     13033     13036     13037     13033     13036     13038     13033     13036     13044
     13037     13036     13038     13037     13036     13044     13038     13036     13044
     13036     13038     13039     13038     13039     13040     13038     13039     13041
     13040     13039     13041     13039     13041     13042     13039     13041     13043
     13039     13041     13053     13042     13041     13043     13042     13041     13053
     13043     13041     13053     13036     13044     13045     13036     13044     13046
     13036     13044     13047     13045     13044     13046     13045     13044     13047
     13046     13044     13047     13044     13047     13048     13047     13048     13049
     13047     13048     13050     13049     13048     13050     13048     13050     13051
     13048     13050     13052     13048     13050     13100     13051     13050     13052
     13051     13050     13100     13052     13050     13100     13041     13053     13054
     13041     13053     13055     13041     13053     13056     13054     13053     13055
     13054     13053     13056     13055     13053     13056     13053     13056     13057
     13053     13056     13058     13053     13056     13059     13057     13056     13058
     13057     13056     13059     13058     13056     13059     13056     13059     13060
     13056     13059     13061     13056     13059     13062     13060     13059     13061
     13060     13059     13062     13061     13059     13062     13059     13062     13063
     13059     13062     13064     13059     13062     13065     13063     13062     13064
     13063     13062     13065     13064     13062     13065     13062     13065     13066
     13062     13065     13067     13062     13065     13068     13066     13065     13067
     13066     13065     13068     13067     13065     13068     13065     13068     13069
     13065     13068     13070     13065     13068     13071     13069     13068     13070
     13069     13068     13071     13070     13068     13071     13068     13071     13072
     13068     13071     13073     13072     13071     13073     13071     13073     13074
     13071     13073     13075     13074     13073     13075     13073     13075     13076
     13073     13075     13077     13073     13075     13078     13076     13075     13077
     13076     13075     13078     13077     13075     13078     13075     13078     13079
     13075     13078     13080     13075     13078     13081     13079     13078     13080
     13079     13078     13081     13080     13078     13081     13078     13081     13082
     13078     13081     13083     13078     13081     13084     13082     13081     13083
     13082     13081     13084     13083     13081     13084     13081     13084     13085
     13081     13084     13086     13081     13084     13087     13085     13084     13086
     13085     13084     13087     13086     13084     13087     13084     13087     13088
     13084     13087     13089     13084     13087     13090     13088     13087     13089
     13088     13087     13090     13089     13087     13090     13087     13090     13091
     13087     13090     13092     13087     13090     13093     13091     13090     13092
     13091     13090     13093     13092     13090     13093     13090     13093     13094
     13090     13093     13095     13090     13093     13096     13094     13093     13095
     13094     13093     13096     13095     13093     13096     13093     13096     13097
     13093     13096     13098     13093     13096     13099     13097     13096     13098
     13097     13096     13099     13098     13096     13099     13050     13100     13101
     13050     13100     13102     13050     13100     13103     13101     13100     13102
     13101     13100     13103     13102     13100     13103     13100     13103     13104
     13100     13103     13105     13100     13103     13106     13104     13103     13105
     13104     13103     13106     13105     13103     13106     13103     13106     13107
     13103     13106     13108     13103     13106     13109     13107     13106     13108
     13107     13106     13109     13108     13106     13109     13106     13109     13110
     13106     13109     13111     13106     13109     13112     13110     13109     13111
     13110     13109     13112     13111     13109     13112     13109     13112     13113
     13109     13112     13114     13109     13112     13115     13113     13112     13114
     13113     13112     13115     13114     13112     13115     13112     13115     13116
     13112     13115     13117     13112     13115     13118     13116     13115     13117
     13116     13115     13118     13117     13115     13118     13115     13118     13119
     13115     13118     13120     13115     13118     13121     13119     13118     13120
     13119     13118     13121     13120     13118     13121     13118     13121     13122
     13118     13121     13123     13118     13121     13124     13122     13121     13123
     13122     13121     13124     13123     13121     13124     13121     13124     13125
     13121     13124     13126     13121     13124     13127     13125     13124     13126
     13125     13124     13127     13126     13124     13127     13124     13127     13128
     13124     13127     13129     13124     13127     13130     13128     13127     13129
     13128     13127     13130     13129     13127     13130     13127     13130     13131
     13127     13130     13132     13127     13130     13133     13131     13130     13132
     13131     13130     13133     13132     13130     13133     13130     13133     13134
     13130     13133     13135     13130     13133     13136     13134     13133     13135
     13134     13133     13136     13135     13133     13136     13133     13136     13137
     13133     13136     13138     13133     13136     13139     13137     13136     13138
     13137     13136     13139     13138     13136     13139     13136     13139     13140
     13136     13139     13141     13136     13139     13142     13140     13139     13141
     13140     13139     13142     13141     13139     13142     13144     13143     13147
     13144     13143     13151     13144     13143     13155     13147     13143     13151
     13147     13143     13155     13151     13143     13155     13143     13144     13145
     13143     13144     13146     13143     13144     13159     13145     13144     13146
     13145     13144     13159     13146     13144     13159     13143     13147     13148
     13143     13147     13149     13143     13147     13150     13148     13147     13149
     13148     13147     13150     13149     13147     13150     13143     13151     13152
     13143     13151     13153     13143     13151     13154     13152     13151     13153
     13152     13151     13154     13153     13151     13154     13143     13155     13156
     13143     13155     13157     13143     13155     13158     13156     13155     13157
     13156     13155     13158     13157     13155     13158     13144     13159     13160
     13144     13159     13161     13144     13159     13165     13160     13159     13161
     13160     13159     13165     13161     13159     13165     13163     13162     13164
     13163     13162     13165     13163     13162     13166     13164     13162     13165
     13164     13162     13166     13165     13162     13166     13159     13165     13162
     13162     13166     13167     13166     13167     13168     13166     13167     13169
     13166     13167     13170     13168     13167     13169     13168     13167     13170
     13169     13167     13170     13167     13170     13171     13167     13170     13172
     13167     13170     13178     13171     13170     13172     13171     13170     13178
     13172     13170     13178     13170     13172     13173     13172     13173     13174
     13172     13173     13175     13174     13173     13175     13173     13175     13176
     13173     13175     13177     13173     13175     13187     13176     13175     13177
     13176     13175     13187     13177     13175     13187     13170     13178     13179
     13170     13178     13180     13170     13178     13181     13179     13178     13180
     13179     13178     13181     13180     13178     13181     13178     13181     13182
     13181     13182     13183     13181     13182     13184     13183     13182     13184
     13182     13184     13185     13182     13184     13186     13182     13184     13234
     13185     13184     13186     13185     13184     13234     13186     13184     13234
     13175     13187     13188     13175     13187     13189     13175     13187     13190
     13188     13187     13189     13188     13187     13190     13189     13187     13190
     13187     13190     13191     13187     13190     13192     13187     13190     13193
     13191     13190     13192     13191     13190     13193     13192     13190     13193
     13190     13193     13194     13190     13193     13195     13190     13193     13196
     13194     13193     13195     13194     13193     13196     13195     13193     13196
     13193     13196     13197     13193     13196     13198     13193     13196     13199
     13197     13196     13198     13197     13196     13199     13198     13196     13199
     13196     13199     13200     13196     13199     13201     13196     13199     13202
     13200     13199     13201     13200     13199     13202     13201     13199     13202
     13199     13202     13203     13199     13202     13204     13199     13202     13205
     13203     13202     13204     13203     13202     13205     13204     13202     13205
     13202     13205     13206     13202     13205     13207     13206     13205     13207
     13205     13207     13208     13205     13207     13209     13208     13207     13209
     13207     13209     13210     13207     13209     13211     13207     13209     13212
     13210     13209     13211     13210     13209     13212     13211     13209     13212
     13209     13212     13213     13209     13212     13214     13209     13212     13215
     13213     13212     13214     13213     13212     13215     13214     13212     13215
     13212     13215     13216     13212     13215     13217     13212     13215     13218
     13216     13215     13217     13216     13215     13218     13217     13215     13218
     13215     13218     13219     13215     13218     13220     13215     13218     13221
     13219     13218     13220     13219     13218     13221     13220     13218     13221
     13218     13221     13222     13218     13221     13223     13218     13221     13224
     13222     13221     13223     13222     13221     13224     13223     13221     13224
     13221     13224     13225     13221     13224     13226     13221     13224     13227
     13225     13224     13226     13225     13224     13227     13226     13224     13227
     13224     13227     13228     13224     13227     13229     13224     13227     13230
     13228     13227     13229     13228     13227     13230     13229     13227     13230
     13227     13230     13231     13227     13230     13232     13227     13230     13233
     13231     13230     13232     13231     13230     13233     13232     13230     13233
     13184     13234     13235     13184     13234     13236     13184     13234     13237
     13235     13234     13236     13235     13234     13237     13236     13234     13237
     13234     13237     13238     13234     13237     13239     13234     13237     13240
     13238     13237     13239     13238     13237     13240     13239     13237     13240
     13237     13240     13241     13237     13240     13242     13237     13240     13243
     13241     13240     13242     13241     13240     13243     13242     13240     13243
     13240     13243     13244     13240     13243     13245     13240     13243     13246
     13244     13243     13245     13244     13243     13246     13245     13243     13246
     13243     13246     13247     13243     13246     13248     13243     13246     13249
     13247     13246     13248     13247     13246     13249     13248     13246     13249
     13246     13249     13250     13246     13249     13251     13246     13249     13252
     13250     13249     13251     13250     13249     13252     13251     13249     13252
     13249     13252     13253     13249     13252     13254     13249     13252     13255
     13253     13252     13254     13253     13252     13255     13254     13252     13255
     13252     13255     13256     13252     13255     13257     13252     13255     13258
     13256     13255     13257     13256     13255     13258     13257     13255     13258
     13255     13258     13259     13255     13258     13260     13255     13258     13261
     13259     13258     13260     13259     13258     13261     13260     13258     13261
     13258     13261     13262     13258     13261     13263     13258     13261     13264
     13262     13261     13263     13262     13261     13264     13263     13261     13264
     13261     13264     13265     13261     13264     13266     13261     13264     13267
     13265     13264     13266     13265     13264     13267     13266     13264     13267
     13264     13267     13268     13264     13267     13269     13264     13267     13270
     13268     13267     13269     13268     13267     13270     13269     13267     13270
     13267     13270     13271     13267     13270     13272     13267     13270     13273
     13271     13270     13272     13271     13270     13273     13272     13270     13273
     13270     13273     13274     13270     13273     13275     13270     13273     13276
     13274     13273     13275     13274     13273     13276     13275     13273     13276
     13278     13277     13281     13278     13277     13285     13278     13277     13289
     13281     13277     13285     13281     13277     13289     13285     13277     13289
     13277     13278     13279     13277     13278     13280     13277     13278     13293
     13279     13278     13280     13279     13278     13293     13280     13278     13293
     13277     13281     13282     13277     13281     13283     13277     13281     13284
     13282     13281     13283     13282     13281     13284     13283     13281     13284
     13277     13285     13286     13277     13285     13287     13277     13285     13288
     13286     13285     13287     13286     13285     13288     13287     13285     13288
     13277     13289     13290     13277     13289     13291     13277     13289     13292
     13290     13289     13291     13290     13289     13292     13291     13289     13292
     13278     13293     13294     13278     13293     13295     13278     13293     13299
     13294     13293     13295     13294     13293     13299     13295     13293     13299
     13297     13296     13298     13297     13296     13299     13297     13296     13300
     13298     13296     13299     13298     13296     13300     13299     13296     13300
     13293     13299     13296     13296     13300     13301     13300     13301     13302
     13300     13301     13303     13300     13301     13304     13302     13301     13303
     13302     13301     13304     13303     13301     13304     13301     13304     13305
     13301     13304     13306     13301     13304     13312     13305     13304     13306
     13305     13304     13312     13306     13304     13312     13304     13306     13307
     13306     13307     13308     13306     13307     13309     13308     13307     13309
     13307     13309     13310     13307     13309     13311     13307     13309     13321
     13310     13309     13311     13310     13309     13321     13311     13309     13321
     13304     13312     13313     13304     13312     13314     13304     13312     13315
     13313     13312     13314     13313     13312     13315     13314     13312     13315
     13312     13315     13316     13315     13316     13317     13315     13316     13318
     13317     13316     13318     13316     13318     13319     13316     13318     13320
     13316     13318     13368     13319     13318     13320     13319     13318     13368
     13320     13318     13368     13309     13321     13322     13309     13321     13323
     13309     13321     13324     13322     13321     13323     13322     13321     13324
     13323     13321     13324     13321     13324     13325     13321     13324     13326
     13321     13324     13327     13325     13324     13326     13325     13324     13327
     13326     13324     13327     13324     13327     13328     13324     13327     13329
     13324     13327     13330     13328     13327     13329     13328     13327     13330
     13329     13327     13330     13327     13330     13331     13327     13330     13332
     13327     13330     13333     13331     13330     13332     13331     13330     13333
     13332     13330     13333     13330     13333     13334     13330     13333     13335
     13330     13333     13336     13334     13333     13335     13334     13333     13336
     13335     13333     13336     13333     13336     13337     13333     13336     13338
     13333     13336     13339     13337     13336     13338     13337     13336     13339
     13338     13336     13339     13336     13339     13340     13336     13339     13341
     13340     13339     13341     13339     13341     13342     13339     13341     13343
     13342     13341     13343     13341     13343     13344     13341     13343     13345
     13341     13343     13346     13344     13343     13345     13344     13343     13346
     13345     13343     13346     13343     13346     13347     13343     13346     13348
     13343     13346     13349     13347     13346     13348     13347     13346     13349
     13348     13346     13349     13346     13349     13350     13346     13349     13351
     13346     13349     13352     13350     13349     13351     13350     13349     13352
     13351     13349     13352     13349     13352     13353     13349     13352     13354
     13349     13352     13355     13353     13352     13354     13353     13352     13355
     13354     13352     13355     13352     13355     13356     13352     13355     13357
     13352     13355     13358     13356     13355     13357     13356     13355     13358
     13357     13355     13358     13355     13358     13359     13355     13358     13360
     13355     13358     13361     13359     13358     13360     13359     13358     13361
     13360     13358     13361     13358     13361     13362     13358     13361     13363
     13358     13361     13364     13362     13361     13363     13362     13361     13364
     13363     13361     13364     13361     13364     13365     13361     13364     13366
     13361     13364     13367     13365     13364     13366     13365     13364     13367
     13366     13364     13367     13318     13368     13369     13318     13368     13370
     13318     13368     13371     13369     13368     13370     13369     13368     13371
     13370     13368     13371     13368     13371     13372     13368     13371     13373
     13368     13371     13374     13372     13371     13373     13372     13371     13374
     13373     13371     13374     13371     13374     13375     13371     13374     13376
     13371     13374     13377     13375     13374     13376     13375     13374     13377
     13376     13374     13377     13374     13377     13378     13374     13377     13379
     13374     13377     13380     13378     13377     13379     13378     13377     13380
     13379     13377     13380     13377     13380     13381     13377     13380     13382
     13377     13380     13383     13381     13380     13382     13381     13380     13383
     13382     13380     13383     13380     13383     13384     13380     13383     13385
     13380     13383     13386     13384     13383     13385     13384     13383     13386
     13385     13383     13386     13383     13386     13387     13383     13386     13388
     13383     13386     13389     13387     13386     13388     13387     13386     13389
     13388     13386     13389     13386     13389     13390     13386     13389     13391
     13386     13389     13392     13390     13389     13391     13390     13389     13392
     13391     13389     13392     13389     13392     13393     13389     13392     13394
     13389     13392     13395     13393     13392     13394     13393     13392     13395
     13394     13392     13395     13392     13395     13396     13392     13395     13397
     13392     13395     13398     13396     13395     13397     13396     13395     13398
     13397     13395     13398     13395     13398     13399     13395     13398     13400
     13395     13398     13401     13399     13398     13400     13399     13398     13401
     13400     13398     13401     13398     13401     13402     13398     13401     13403
     13398     13401     13404     13402     13401     13403     13402     13401     13404
     13403     13401     13404     13401     13404     13405     13401     13404     13406
     13401     13404     13407     13405     13404     13406     13405     13404     13407
     13406     13404     13407     13404     13407     13408     13404     13407     13409
     13404     13407     13410     13408     13407     13409     13408     13407     13410
     13409     13407     13410     13412     13411     13415     13412     13411     13419
     13412     13411     13423     13415     13411     13419     13415     13411     13423
     13419     13411     13423     13411     13412     13413     13411     13412     13414
     13411     13412     13427     13413     13412     13414     13413     13412     13427
     13414     13412     13427     13411     13415     13416     13411     13415     13417
     13411     13415     13418     13416     13415     13417     13416     13415     13418
     13417     13415     13418     13411     13419     13420     13411     13419     13421
     13411     13419     13422     13420     13419     13421     13420     13419     13422
     13421     13419     13422     13411     13423     13424     13411     13423     13425
     13411     13423     13426     13424     13423     13425     13424     13423     13426
     13425     13423     13426     13412     13427     13428     13412     13427     13429
     13412     13427     13433     13428     13427     13429     13428     13427     13433
     13429     13427     13433     13431     13430     13432     13431     13430     13433
     13431     13430     13434     13432     13430     13433     13432     13430     13434
     13433     13430     13434     13427     13433     13430     13430     13434     13435
     13434     13435     13436     13434     13435     13437     13434     13435     13438
     13436     13435     13437     13436     13435     13438     13437     13435     13438
     13435     13438     13439     13435     13438     13440     13435     13438     13446
     13439     13438     13440     13439     13438     13446     13440     13438     13446
     13438     13440     13441     13440     13441     13442     13440     13441     13443
     13442     13441     13443     13441     13443     13444     13441     13443     13445
     13441     13443     13455     13444     13443     13445     13444     13443     13455
     13445     13443     13455     13438     13446     13447     13438     13446     13448
     13438     13446     13449     13447     13446     13448     13447     13446     13449
     13448     13446     13449     13446     13449     13450     13449     13450     13451
     13449     13450     13452     13451     13450     13452     13450     13452     13453
     13450     13452     13454     13450     13452     13502     13453     13452     13454
     13453     13452     13502     13454     13452     13502     13443     13455     13456
     13443     13455     13457     13443     13455     13458     13456     13455     13457
     13456     13455     13458     13457     13455     13458     13455     13458     13459
     13455     13458     13460     13455     13458     13461     13459     13458     13460
     13459     13458     13461     13460     13458     13461     13458     13461     13462
     13458     13461     13463     13458     13461     13464     13462     13461     13463
     13462     13461     13464     13463     13461     13464     13461     13464     13465
     13461     13464     13466     13461     13464     13467     13465     13464     13466
     13465     13464     13467     13466     13464     13467     13464     13467     13468
     13464     13467     13469     13464     13467     13470     13468     13467     13469
     13468     13467     13470     13469     13467     13470     13467     13470     13471
     13467     13470     13472     13467     13470     13473     13471     13470     13472
     13471     13470     13473     13472     13470     13473     13470     13473     13474
     13470     13473     13475     13474     13473     13475     13473     13475     13476
     13473     13475     13477     13476     13475     13477     13475     13477     13478
     13475     13477     13479     13475     13477     13480     13478     13477     13479
     13478     13477     13480     13479     13477     13480     13477     13480     13481
     13477     13480     13482     13477     13480     13483     13481     13480     13482
     13481     13480     13483     13482     13480     13483     13480     13483     13484
     13480     13483     13485     13480     13483     13486     13484     13483     13485
     13484     13483     13486     13485     13483     13486     13483     13486     13487
     13483     13486     13488     13483     13486     13489     13487     13486     13488
     13487     13486     13489     13488     13486     13489     13486     13489     13490
     13486     13489     13491     13486     13489     13492     13490     13489     13491
     13490     13489     13492     13491     13489     13492     13489     13492     13493
     13489     13492     13494     13489     13492     13495     13493     13492     13494
     13493     13492     13495     13494     13492     13495     13492     13495     13496
     13492     13495     13497     13492     13495     13498     13496     13495     13497
     13496     13495     13498     13497     13495     13498     13495     13498     13499
     13495     13498     13500     13495     13498     13501     13499     13498     13500
     13499     13498     13501     13500     13498     13501     13452     13502     13503
     13452     13502     13504     13452     13502     13505     13503     13502     13504
     13503     13502     13505     13504     13502     13505     13502     13505     13506
     13502     13505     13507     13502     13505     13508     13506     13505     13507
     13506     13505     13508     13507     13505     13508     13505     13508     13509
     13505     13508     13510     13505     13508     13511     13509     13508     13510
     13509     13508     13511     13510     13508     13511     13508     13511     13512
     13508     13511     13513     13508     13511     13514     13512     13511     13513
     13512     13511     13514     13513     13511     13514     13511     13514     13515
     13511     13514     13516     13511     13514     13517     13515     13514     13516
     13515     13514     13517     13516     13514     13517     13514     13517     13518
     13514     13517     13519     13514     13517     13520     13518     13517     13519
     13518     13517     13520     13519     13517     13520     13517     13520     13521
     13517     13520     13522     13517     13520     13523     13521     13520     13522
     13521     13520     13523     13522     13520     13523     13520     13523     13524
     13520     13523     13525     13520     13523     13526     13524     13523     13525
     13524     13523     13526     13525     13523     13526     13523     13526     13527
     13523     13526     13528     13523     13526     13529     13527     13526     13528
     13527     13526     13529     13528     13526     13529     13526     13529     13530
     13526     13529     13531     13526     13529     13532     13530     13529     13531
     13530     13529     13532     13531     13529     13532     13529     13532     13533
     13529     13532     13534     13529     13532     13535     13533     13532     13534
     13533     13532     13535     13534     13532     13535     13532     13535     13536
     13532     13535     13537     13532     13535     13538     13536     13535     13537
     13536     13535     13538     13537     13535     13538     13535     13538     13539
     13535     13538     13540     13535     13538     13541     13539     13538     13540
     13539     13538     13541     13540     13538     13541     13538     13541     13542
     13538     13541     13543     13538     13541     13544     13542     13541     13543
     13542     13541     13544     13543     13541     13544     13546     13545     13547
     13546     13545     13548     13546     13545     13549     13547     13545     13548
     13547     13545     13549     13548     13545     13549     13545     13549     13550
     13545     13549     13551     13545     13549     13554     13550     13549     13551
     13550     13549     13554     13551     13549     13554     13549     13551     13552
     13549     13551     13553     13552     13551     13553     13549     13554     13555
     13549     13554     13556     13549     13554     13560     13555     13554     13556
     13555     13554     13560     13556     13554     13560     13558     13557     13559
     13558     13557     13560     13558     13557     13561     13559     13557     13560
     13559     13557     13561     13560     13557     13561     13554     13560     13557
     13557     13561     13562     13561     13562     13563     13561     13562     13564
     13561     13562     13565     13563     13562     13564     13563     13562     13565
     13564     13562     13565     13562     13565     13566     13562     13565     13567
     13562     13565     13573     13566     13565     13567     13566     13565     13573
     13567     13565     13573     13565     13567     13568     13567     13568     13569
     13567     13568     13570     13569     13568     13570     13568     13570     13571
     13568     13570     13572     13568     13570     13582     13571     13570     13572
     13571     13570     13582     13572     13570     13582     13565     13573     13574
     13565     13573     13575     13565     13573     13576     13574     13573     13575
     13574     13573     13576     13575     13573     13576     13573     13576     13577
     13576     13577     13578     13576     13577     13579     13578     13577     13579
     13577     13579     13580     13577     13579     13581     13577     13579     13629
     13580     13579     13581     13580     13579     13629     13581     13579     13629
     13570     13582     13583     13570     13582     13584     13570     13582     13585
     13583     13582     13584     13583     13582     13585     13584     13582     13585
     13582     13585     13586     13582     13585     13587     13582     13585     13588
     13586     13585     13587     13586     13585     13588     13587     13585     13588
     13585     13588     13589     13585     13588     13590     13585     13588     13591
     13589     13588     13590     13589     13588     13591     13590     13588     13591
     13588     13591     13592     13588     13591     13593     13588     13591     13594
     13592     13591     13593     13592     13591     13594     13593     13591     13594
     13591     13594     13595     13591     13594     13596     13591     13594     13597
     13595     13594     13596     13595     13594     13597     13596     13594     13597
     13594     13597     13598     13594     13597     13599     13594     13597     13600
     13598     13597     13599     13598     13597     13600     13599     13597     13600
     13597     13600     13601     13597     13600     13602     13601     13600     13602
     13600     13602     13603     13600     13602     13604     13603     13602     13604
     13602     13604     13605     13602     13604     13606     13602     13604     13607
     13605     13604     13606     13605     13604     13607     13606     13604     13607
     13604     13607     13608     13604     13607     13609     13604     13607     13610
     13608     13607     13609     13608     13607     13610     13609     13607     13610
     13607     13610     13611     13607     13610     13612     13607     13610     13613
     13611     13610     13612     13611     13610     13613     13612     13610     13613
     13610     13613     13614     13610     13613     13615     13610     13613     13616
     13614     13613     13615     13614     13613     13616     13615     13613     13616
     13613     13616     13617     13613     13616     13618     13613     13616     13619
     13617     13616     13618     13617     13616     13619     13618     13616     13619
     13616     13619     13620     13616     13619     13621     13616     13619     13622
     13620     13619     13621     13620     13619     13622     13621     13619     13622
     13619     13622     13623     13619     13622     13624     13619     13622     13625
     13623     13622     13624     13623     13622     13625     13624     13622     13625
     13622     13625     13626     13622     13625     13627     13622     13625     13628
     13626     13625     13627     13626     13625     13628     13627     13625     13628
     13579     13629     13630     13579     13629     13631     13579     13629     13632
     13630     13629     13631     13630     13629     13632     13631     13629     13632
     13629     13632     13633     13629     13632     13634     13629     13632     13635
     13633     13632     13634     13633     13632     13635     13634     13632     13635
     13632     13635     13636     13632     13635     13637     13632     13635     13638
     13636     13635     13637     13636     13635     13638     13637     13635     13638
     13635     13638     13639     13635     13638     13640     13635     13638     13641
     13639     13638     13640     13639     13638     13641     13640     13638     13641
     13638     13641     13642     13638     13641     13643     13638     13641     13644
     13642     13641     13643     13642     13641     13644     13643     13641     13644
     13641     13644     13645     13641     13644     13646     13641     13644     13647
     13645     13644     13646     13645     13644     13647     13646     13644     13647
     13644     13647     13648     13644     13647     13649     13644     13647     13650
     13648     13647     13649     13648     13647     13650     13649     13647     13650
     13647     13650     13651     13647     13650     13652     13647     13650     13653
     13651     13650     13652     13651     13650     13653     13652     13650     13653
     13650     13653     13654     13650     13653     13655     13650     13653     13656
     13654     13653     13655     13654     13653     13656     13655     13653     13656
     13653     13656     13657     13653     13656     13658     13653     13656     13659
     13657     13656     13658     13657     13656     13659     13658     13656     13659
     13656     13659     13660     13656     13659     13661     13656     13659     13662
     13660     13659     13661     13660     13659     13662     13661     13659     13662
     13659     13662     13663     13659     13662     13664     13659     13662     13665
     13663     13662     13664     13663     13662     13665     13664     13662     13665
     13662     13665     13666     13662     13665     13667     13662     13665     13668
     13666     13665     13667     13666     13665     13668     13667     13665     13668
     13665     13668     13669     13665     13668     13670     13665     13668     13671
     13669     13668     13670     13669     13668     13671     13670     13668     13671
     13673     13672     13676     13673     13672     13680     13673     13672     13684
     13676     13672     13680     13676     13672     13684     13680     13672     13684
     13672     13673     13674     13672     13673     13675     13672     13673     13688
     13674     13673     13675     13674     13673     13688     13675     13673     13688
     13672     13676     13677     13672     13676     13678     13672     13676     13679
     13677     13676     13678     13677     13676     13679     13678     13676     13679
     13672     13680     13681     13672     13680     13682     13672     13680     13683
     13681     13680     13682     13681     13680     13683     13682     13680     13683
     13672     13684     13685     13672     13684     13686     13672     13684     13687
     13685     13684     13686     13685     13684     13687     13686     13684     13687
     13673     13688     13689     13673     13688     13690     13673     13688     13694
     13689     13688     13690     13689     13688     13694     13690     13688     13694
     13692     13691     13693     13692     13691     13694     13692     13691     13695
     13693     13691     13694     13693     13691     13695     13694     13691     13695
     13688     13694     13691     13691     13695     13696     13695     13696     13697
     13695     13696     13698     13695     13696     13699     13697     13696     13698
     13697     13696     13699     13698     13696     13699     13696     13699     13700
     13696     13699     13701     13696     13699     13707     13700     13699     13701
     13700     13699     13707     13701     13699     13707     13699     13701     13702
     13701     13702     13703     13701     13702     13704     13703     13702     13704
     13702     13704     13705     13702     13704     13706     13702     13704     13716
     13705     13704     13706     13705     13704     13716     13706     13704     13716
     13699     13707     13708     13699     13707     13709     13699     13707     13710
     13708     13707     13709     13708     13707     13710     13709     13707     13710
     13707     13710     13711     13710     13711     13712     13710     13711     13713
     13712     13711     13713     13711     13713     13714     13711     13713     13715
     13711     13713     13763     13714     13713     13715     13714     13713     13763
     13715     13713     13763     13704     13716     13717     13704     13716     13718
     13704     13716     13719     13717     13716     13718     13717     13716     13719
     13718     13716     13719     13716     13719     13720     13716     13719     13721
     13716     13719     13722     13720     13719     13721     13720     13719     13722
     13721     13719     13722     13719     13722     13723     13719     13722     13724
     13719     13722     13725     13723     13722     13724     13723     13722     13725
     13724     13722     13725     13722     13725     13726     13722     13725     13727
     13722     13725     13728     13726     13725     13727     13726     13725     13728
     13727     13725     13728     13725     13728     13729     13725     13728     13730
     13725     13728     13731     13729     13728     13730     13729     13728     13731
     13730     13728     13731     13728     13731     13732     13728     13731     13733
     13728     13731     13734     13732     13731     13733     13732     13731     13734
     13733     13731     13734     13731     13734     13735     13731     13734     13736
     13735     13734     13736     13734     13736     13737     13734     13736     13738
     13737     13736     13738     13736     13738     13739     13736     13738     13740
     13736     13738     13741     13739     13738     13740     13739     13738     13741
     13740     13738     13741     13738     13741     13742     13738     13741     13743
     13738     13741     13744     13742     13741     13743     13742     13741     13744
     13743     13741     13744     13741     13744     13745     13741     13744     13746
     13741     13744     13747     13745     13744     13746     13745     13744     13747
     13746     13744     13747     13744     13747     13748     13744     13747     13749
     13744     13747     13750     13748     13747     13749     13748     13747     13750
     13749     13747     13750     13747     13750     13751     13747     13750     13752
     13747     13750     13753     13751     13750     13752     13751     13750     13753
     13752     13750     13753     13750     13753     13754     13750     13753     13755
     13750     13753     13756     13754     13753     13755     13754     13753     13756
     13755     13753     13756     13753     13756     13757     13753     13756     13758
     13753     13756     13759     13757     13756     13758     13757     13756     13759
     13758     13756     13759     13756     13759     13760     13756     13759     13761
     13756     13759     13762     13760     13759     13761     13760     13759     13762
     13761     13759     13762     13713     13763     13764     13713     13763     13765
     13713     13763     13766     13764     13763     13765     13764     13763     13766
     13765     13763     13766     13763     13766     13767     13763     13766     13768
     13763     13766     13769     13767     13766     13768     13767     13766     13769
     13768     13766     13769     13766     13769     13770     13766     13769     13771
     13766     13769     13772     13770     13769     13771     13770     13769     13772
     13771     13769     13772     13769     13772     13773     13769     13772     13774
     13769     13772     13775     13773     13772     13774     13773     13772     13775
     13774     13772     13775     13772     13775     13776     13772     13775     13777
     13772     13775     13778     13776     13775     13777     13776     13775     13778
     13777     13775     13778     13775     13778     13779     13775     13778     13780
     13775     13778     13781     13779     13778     13780     13779     13778     13781
     13780     13778     13781     13778     13781     13782     13778     13781     13783
     13778     13781     13784     13782     13781     13783     13782     13781     13784
     13783     13781     13784     13781     13784     13785     13781     13784     13786
     13781     13784     13787     13785     13784     13786     13785     13784     13787
     13786     13784     13787     13784     13787     13788     13784     13787     13789
     13784     13787     13790     13788     13787     13789     13788     13787     13790
     13789     13787     13790     13787     13790     13791     13787     13790     13792
     13787     13790     13793     13791     13790     13792     13791     13790     13793
     13792     13790     13793     13790     13793     13794     13790     13793     13795
     13790     13793     13796     13794     13793     13795     13794     13793     13796
     13795     13793     13796     13793     13796     13797     13793     13796     13798
     13793     13796     13799     13797     13796     13798     13797     13796     13799
     13798     13796     13799     13796     13799     13800     13796     13799     13801
     13796     13799     13802     13800     13799     13801     13800     13799     13802
     13801     13799     13802     13799     13802     13803     13799     13802     13804
     13799     13802     13805     13803     13802     13804     13803     13802     13805
     13804     13802     13805     13807     13806     13808     13807     13806     13809
     13807     13806     13810     13808     13806     13809     13808     13806     13810
     13809     13806     13810     13806     13810     13811     13806     13810     13812
     13806     13810     13815     13811     13810     13812     13811     13810     13815
     13812     13810     13815     13810     13812     13813     13810     13812     13814
     13813     13812     13814     13810     13815     13816     13810     13815     13817
     13810     13815     13821     13816     13815     13817     13816     13815     13821
     13817     13815     13821     13819     13818     13820     13819     13818     13821
     13819     13818     13822     13820     13818     13821     13820     13818     13822
     13821     13818     13822     13815     13821     13818     13818     13822     13823
     13822     13823     13824     13822     13823     13825     13822     13823     13826
     13824     13823     13825     13824     13823     13826     13825     13823     13826
     13823     13826     13827     13823     13826     13828     13823     13826     13834
     13827     13826     13828     13827     13826     13834     13828     13826     13834
     13826     13828     13829     13828     13829     13830     13828     13829     13831
     13830     13829     13831     13829     13831     13832     13829     13831     13833
     13829     13831     13843     13832     13831     13833     13832     13831     13843
     13833     13831     13843     13826     13834     13835     13826     13834     13836
     13826     13834     13837     13835     13834     13836     13835     13834     13837
     13836     13834     13837     13834     13837     13838     13837     13838     13839
     13837     13838     13840     13839     13838     13840     13838     13840     13841
     13838     13840     13842     13838     13840     13890     13841     13840     13842
     13841     13840     13890     13842     13840     13890     13831     13843     13844
     13831     13843     13845     13831     13843     13846     13844     13843     13845
     13844     13843     13846     13845     13843     13846     13843     13846     13847
     13843     13846     13848     13843     13846     13849     13847     13846     13848
     13847     13846     13849     13848     13846     13849     13846     13849     13850
     13846     13849     13851     13846     13849     13852     13850     13849     13851
     13850     13849     13852     13851     13849     13852     13849     13852     13853
     13849     13852     13854     13849     13852     13855     13853     13852     13854
     13853     13852     13855     13854     13852     13855     13852     13855     13856
     13852     13855     13857     13852     13855     13858     13856     13855     13857
     13856     13855     13858     13857     13855     13858     13855     13858     13859
     13855     13858     13860     13855     13858     13861     13859     13858     13860
     13859     13858     13861     13860     13858     13861     13858     13861     13862
     13858     13861     13863     13862     13861     13863     13861     13863     13864
     13861     13863     13865     13864     13863     13865     13863     13865     13866
     13863     13865     13867     13863     13865     13868     13866     13865     13867
     13866     13865     13868     13867     13865     13868     13865     13868     13869
     13865     13868     13870     13865     13868     13871     13869     13868     13870
     13869     13868     13871     13870     13868     13871     13868     13871     13872
     13868     13871     13873     13868     13871     13874     13872     13871     13873
     13872     13871     13874     13873     13871     13874     13871     13874     13875
     13871     13874     13876     13871     13874     13877     13875     13874     13876
     13875     13874     13877     13876     13874     13877     13874     13877     13878
     13874     13877     13879     13874     13877     13880     13878     13877     13879
     13878     13877     13880     13879     13877     13880     13877     13880     13881
     13877     13880     13882     13877     13880     13883     13881     13880     13882
     13881     13880     13883     13882     13880     13883     13880     13883     13884
     13880     13883     13885     13880     13883     13886     13884     13883     13885
     13884     13883     13886     13885     13883     13886     13883     13886     13887
     13883     13886     13888     13883     13886     13889     13887     13886     13888
     13887     13886     13889     13888     13886     13889     13840     13890     13891
     13840     13890     13892     13840     13890     13893     13891     13890     13892
     13891     13890     13893     13892     13890     13893     13890     13893     13894
     13890     13893     13895     13890     13893     13896     13894     13893     13895
     13894     13893     13896     13895     13893     13896     13893     13896     13897
     13893     13896     13898     13893     13896     13899     13897     13896     13898
     13897     13896     13899     13898     13896     13899     13896     13899     13900
     13896     13899     13901     13896     13899     13902     13900     13899     13901
     13900     13899     13902     13901     13899     13902     13899     13902     13903
     13899     13902     13904     13899     13902     13905     13903     13902     13904
     13903     13902     13905     13904     13902     13905     13902     13905     13906
     13902     13905     13907     13902     13905     13908     13906     13905     13907
     13906     13905     13908     13907     13905     13908     13905     13908     13909
     13905     13908     13910     13905     13908     13911     13909     13908     13910
     13909     13908     13911     13910     13908     13911     13908     13911     13912
     13908     13911     13913     13908     13911     13914     13912     13911     13913
     13912     13911     13914     13913     13911     13914     13911     13914     13915
     13911     13914     13916     13911     13914     13917     13915     13914     13916
     13915     13914     13917     13916     13914     13917     13914     13917     13918
     13914     13917     13919     13914     13917     13920     13918     13917     13919
     13918     13917     13920     13919     13917     13920     13917     13920     13921
     13917     13920     13922     13917     13920     13923     13921     13920     13922
     13921     13920     13923     13922     13920     13923     13920     13923     13924
     13920     13923     13925     13920     13923     13926     13924     13923     13925
     13924     13923     13926     13925     13923     13926     13923     13926     13927
     13923     13926     13928     13923     13926     13929     13927     13926     13928
     13927     13926     13929     13928     13926     13929     13926     13929     13930
     13926     13929     13931     13926     13929     13932     13930     13929     13931
     13930     13929     13932     13931     13929     13932     13934     13933     13937
     13934     13933     13941     13934     13933     13945     13937     13933     13941
     13937     13933     13945     13941     13933     13945     13933     13934     13935
     13933     13934     13936     13933     13934     13949     13935     13934     13936
     13935     13934     13949     13936     13934     13949     13933     13937     13938
     13933     13937     13939     13933     13937     13940     13938     13937     13939
     13938     13937     13940     13939     13937     13940     13933     13941     13942
     13933     13941     13943     13933     13941     13944     13942     13941     13943
     13942     13941     13944     13943     13941     13944     13933     13945     13946
     13933     13945     13947     13933     13945     13948     13946     13945     13947
     13946     13945     13948     13947     13945     13948     13934     13949     13950
     13934     13949     13951     13934     13949     13955     13950     13949     13951
     13950     13949     13955     13951     13949     13955     13953     13952     13954
     13953     13952     13955     13953     13952     13956     13954     13952     13955
     13954     13952     13956     13955     13952     13956     13949     13955     13952
     13952     13956     13957     13956     13957     13958     13956     13957     13959
     13956     13957     13960     13958     13957     13959     13958     13957     13960
     13959     13957     13960     13957     13960     13961     13957     13960     13962
     13957     13960     13968     13961     13960     13962     13961     13960     13968
     13962     13960     13968     13960     13962     13963     13962     13963     13964
     13962     13963     13965     13964     13963     13965     13963     13965     13966
     13963     13965     13967     13963     13965     13977     13966     13965     13967
     13966     13965     13977     13967     13965     13977     13960     13968     13969
     13960     13968     13970     13960     13968     13971     13969     13968     13970
     13969     13968     13971     13970     13968     13971     13968     13971     13972
     13971     13972     13973     13971     13972     13974     13973     13972     13974
     13972     13974     13975     13972     13974     13976     13972     13974     14024
     13975     13974     13976     13975     13974     14024     13976     13974     14024
     13965     13977     13978     13965     13977     13979     13965     13977     13980
     13978     13977     13979     13978     13977     13980     13979     13977     13980
     13977     13980     13981     13977     13980     13982     13977     13980     13983
     13981     13980     13982     13981     13980     13983     13982     13980     13983
     13980     13983     13984     13980     13983     13985     13980     13983     13986
     13984     13983     13985     13984     13983     13986     13985     13983     13986
     13983     13986     13987     13983     13986     13988     13983     13986     13989
     13987     13986     13988     13987     13986     13989     13988     13986     13989
     13986     13989     13990     13986     13989     13991     13986     13989     13992
     13990     13989     13991     13990     13989     13992     13991     13989     13992
     13989     13992     13993     13989     13992     13994     13989     13992     13995
     13993     13992     13994     13993     13992     13995     13994     13992     13995
     13992     13995     13996     13992     13995     13997     13996     13995     13997
     13995     13997     13998     13995     13997     13999     13998     13997     13999
     13997     13999     14000     13997     13999     14001     13997     13999     14002
     14000     13999     14001     14000     13999     14002     14001     13999     14002
     13999     14002     14003     13999     14002     14004     13999     14002     14005
     14003     14002     14004     14003     14002     14005     14004     14002     14005
     14002     14005     14006     14002     14005     14007     14002     14005     14008
     14006     14005     14007     14006     14005     14008     14007     14005     14008
     14005     14008     14009     14005     14008     14010     14005     14008     14011
     14009     14008     14010     14009     14008     14011     14010     14008     14011
     14008     14011     14012     14008     14011     14013     14008     14011     14014
     14012     14011     14013     14012     14011     14014     14013     14011     14014
     14011     14014     14015     14011     14014     14016     14011     14014     14017
     14015     14014     14016     14015     14014     14017     14016     14014     14017
     14014     14017     14018     14014     14017     14019     14014     14017     14020
     14018     14017     14019     14018     14017     14020     14019     14017     14020
     14017     14020     14021     14017     14020     14022     14017     14020     14023
     14021     14020     14022     14021     14020     14023     14022     14020     14023
     13974     14024     14025     13974     14024     14026     13974     14024     14027
     14025     14024     14026     14025     14024     14027     14026     14024     14027
     14024     14027     14028     14024     14027     14029     14024     14027     14030
     14028     14027     14029     14028     14027     14030     14029     14027     14030
     14027     14030     14031     14027     14030     14032     14027     14030     14033
     14031     14030     14032     14031     14030     14033     14032     14030     14033
     14030     14033     14034     14030     14033     14035     14030     14033     14036
     14034     14033     14035     14034     14033     14036     14035     14033     14036
     14033     14036     14037     14033     14036     14038     14033     14036     14039
     14037     14036     14038     14037     14036     14039     14038     14036     14039
     14036     14039     14040     14036     14039     14041     14036     14039     14042
     14040     14039     14041     14040     14039     14042     14041     14039     14042
     14039     14042     14043     14039     14042     14044     14039     14042     14045
     14043     14042     14044     14043     14042     14045     14044     14042     14045
     14042     14045     14046     14042     14045     14047     14042     14045     14048
     14046     14045     14047     14046     14045     14048     14047     14045     14048
     14045     14048     14049     14045     14048     14050     14045     14048     14051
     14049     14048     14050     14049     14048     14051     14050     14048     14051
     14048     14051     14052     14048     14051     14053     14048     14051     14054
     14052     14051     14053     14052     14051     14054     14053     14051     14054
     14051     14054     14055     14051     14054     14056     14051     14054     14057
     14055     14054     14056     14055     14054     14057     14056     14054     14057
     14054     14057     14058     14054     14057     14059     14054     14057     14060
     14058     14057     14059     14058     14057     14060     14059     14057     14060
     14057     14060     14061     14057     14060     14062     14057     14060     14063
     14061     14060     14062     14061     14060     14063     14062     14060     14063
     14060     14063     14064     14060     14063     14065     14060     14063     14066
     14064     14063     14065     14064     14063     14066     14065     14063     14066
     14068     14067     14069     14068     14067     14070     14068     14067     14071
     14069     14067     14070     14069     14067     14071     14070     14067     14071
     14067     14071     14072     14067     14071     14073     14067     14071     14076
     14072     14071     14073     14072     14071     14076     14073     14071     14076
     14071     14073     14074     14071     14073     14075     14074     14073     14075
     14071     14076     14077     14071     14076     14078     14071     14076     14082
     14077     14076     14078     14077     14076     14082     14078     14076     14082
     14080     14079     14081     14080     14079     14082     14080     14079     14083
     14081     14079     14082     14081     14079     14083     14082     14079     14083
     14076     14082     14079     14079     14083     14084     14083     14084     14085
     14083     14084     14086     14083     14084     14087     14085     14084     14086
     14085     14084     14087     14086     14084     14087     14084     14087     14088
     14084     14087     14089     14084     14087     14095     14088     14087     14089
     14088     14087     14095     14089     14087     14095     14087     14089     14090
     14089     14090     14091     14089     14090     14092     14091     14090     14092
     14090     14092     14093     14090     14092     14094     14090     14092     14104
     14093     14092     14094     14093     14092     14104     14094     14092     14104
     14087     14095     14096     14087     14095     14097     14087     14095     14098
     14096     14095     14097     14096     14095     14098     14097     14095     14098
     14095     14098     14099     14098     14099     14100     14098     14099     14101
     14100     14099     14101     14099     14101     14102     14099     14101     14103
     14099     14101     14151     14102     14101     14103     14102     14101     14151
     14103     14101     14151     14092     14104     14105     14092     14104     14106
     14092     14104     14107     14105     14104     14106     14105     14104     14107
     14106     14104     14107     14104     14107     14108     14104     14107     14109
     14104     14107     14110     14108     14107     14109     14108     14107     14110
     14109     14107     14110     14107     14110     14111     14107     14110     14112
     14107     14110     14113     14111     14110     14112     14111     14110     14113
     14112     14110     14113     14110     14113     14114     14110     14113     14115
     14110     14113     14116     14114     14113     14115     14114     14113     14116
     14115     14113     14116     14113     14116     14117     14113     14116     14118
     14113     14116     14119     14117     14116     14118     14117     14116     14119
     14118     14116     14119     14116     14119     14120     14116     14119     14121
     14116     14119     14122     14120     14119     14121     14120     14119     14122
     14121     14119     14122     14119     14122     14123     14119     14122     14124
     14123     14122     14124     14122     14124     14125     14122     14124     14126
     14125     14124     14126     14124     14126     14127     14124     14126     14128
     14124     14126     14129     14127     14126     14128     14127     14126     14129
     14128     14126     14129     14126     14129     14130     14126     14129     14131
     14126     14129     14132     14130     14129     14131     14130     14129     14132
     14131     14129     14132     14129     14132     14133     14129     14132     14134
     14129     14132     14135     14133     14132     14134     14133     14132     14135
     14134     14132     14135     14132     14135     14136     14132     14135     14137
     14132     14135     14138     14136     14135     14137     14136     14135     14138
     14137     14135     14138     14135     14138     14139     14135     14138     14140
     14135     14138     14141     14139     14138     14140     14139     14138     14141
     14140     14138     14141     14138     14141     14142     14138     14141     14143
     14138     14141     14144     14142     14141     14143     14142     14141     14144
     14143     14141     14144     14141     14144     14145     14141     14144     14146
     14141     14144     14147     14145     14144     14146     14145     14144     14147
     14146     14144     14147     14144     14147     14148     14144     14147     14149
     14144     14147     14150     14148     14147     14149     14148     14147     14150
     14149     14147     14150     14101     14151     14152     14101     14151     14153
     14101     14151     14154     14152     14151     14153     14152     14151     14154
     14153     14151     14154     14151     14154     14155     14151     14154     14156
     14151     14154     14157     14155     14154     14156     14155     14154     14157
     14156     14154     14157     14154     14157     14158     14154     14157     14159
     14154     14157     14160     14158     14157     14159     14158     14157     14160
     14159     14157     14160     14157     14160     14161     14157     14160     14162
     14157     14160     14163     14161     14160     14162     14161     14160     14163
     14162     14160     14163     14160     14163     14164     14160     14163     14165
     14160     14163     14166     14164     14163     14165     14164     14163     14166
     14165     14163     14166     14163     14166     14167     14163     14166     14168
     14163     14166     14169     14167     14166     14168     14167     14166     14169
     14168     14166     14169     14166     14169     14170     14166     14169     14171
     14166     14169     14172     14170     14169     14171     14170     14169     14172
     14171     14169     14172     14169     14172     14173     14169     14172     14174
     14169     14172     14175     14173     14172     14174     14173     14172     14175
     14174     14172     14175     14172     14175     14176     14172     14175     14177
     14172     14175     14178     14176     14175     14177     14176     14175     14178
     14177     14175     14178     14175     14178     14179     14175     14178     14180
     14175     14178     14181     14179     14178     14180     14179     14178     14181
     14180     14178     14181     14178     14181     14182     14178     14181     14183
     14178     14181     14184     14182     14181     14183     14182     14181     14184
     14183     14181     14184     14181     14184     14185     14181     14184     14186
     14181     14184     14187     14185     14184     14186     14185     14184     14187
     14186     14184     14187     14184     14187     14188     14184     14187     14189
     14184     14187     14190     14188     14187     14189     14188     14187     14190
     14189     14187     14190     14187     14190     14191     14187     14190     14192
     14187     14190     14193     14191     14190     14192     14191     14190     14193
     14192     14190     14193     14195     14194     14198     14195     14194     14202
     14195     14194     14206     14198     14194     14202     14198     14194     14206
     14202     14194     14206     14194     14195     14196     14194     14195     14197
     14194     14195     14210     14196     14195     14197     14196     14195     14210
     14197     14195     14210     14194     14198     14199     14194     14198     14200
     14194     14198     14201     14199     14198     14200     14199     14198     14201
     14200     14198     14201     14194     14202     14203     14194     14202     14204
     14194     14202     14205     14203     14202     14204     14203     14202     14205
     14204     14202     14205     14194     14206     14207     14194     14206     14208
     14194     14206     14209     14207     14206     14208     14207     14206     14209
     14208     14206     14209     14195     14210     14211     14195     14210     14212
     14195     14210     14216     14211     14210     14212     14211     14210     14216
     14212     14210     14216     14214     14213     14215     14214     14213     14216
     14214     14213     14217     14215     14213     14216     14215     14213     14217
     14216     14213     14217     14210     14216     14213     14213     14217     14218
     14217     14218     14219     14217     14218     14220     14217     14218     14221
     14219     14218     14220     14219     14218     14221     14220     14218     14221
     14218     14221     14222     14218     14221     14223     14218     14221     14229
     14222     14221     14223     14222     14221     14229     14223     14221     14229
     14221     14223     14224     14223     14224     14225     14223     14224     14226
     14225     14224     14226     14224     14226     14227     14224     14226     14228
     14224     14226     14238     14227     14226     14228     14227     14226     14238
     14228     14226     14238     14221     14229     14230     14221     14229     14231
     14221     14229     14232     14230     14229     14231     14230     14229     14232
     14231     14229     14232     14229     14232     14233     14232     14233     14234
     14232     14233     14235     14234     14233     14235     14233     14235     14236
     14233     14235     14237     14233     14235     14285     14236     14235     14237
     14236     14235     14285     14237     14235     14285     14226     14238     14239
     14226     14238     14240     14226     14238     14241     14239     14238     14240
     14239     14238     14241     14240     14238     14241     14238     14241     14242
     14238     14241     14243     14238     14241     14244     14242     14241     14243
     14242     14241     14244     14243     14241     14244     14241     14244     14245
     14241     14244     14246     14241     14244     14247     14245     14244     14246
     14245     14244     14247     14246     14244     14247     14244     14247     14248
     14244     14247     14249     14244     14247     14250     14248     14247     14249
     14248     14247     14250     14249     14247     14250     14247     14250     14251
     14247     14250     14252     14247     14250     14253     14251     14250     14252
     14251     14250     14253     14252     14250     14253     14250     14253     14254
     14250     14253     14255     14250     14253     14256     14254     14253     14255
     14254     14253     14256     14255     14253     14256     14253     14256     14257
     14253     14256     14258     14257     14256     14258     14256     14258     14259
     14256     14258     14260     14259     14258     14260     14258     14260     14261
     14258     14260     14262     14258     14260     14263     14261     14260     14262
     14261     14260     14263     14262     14260     14263     14260     14263     14264
     14260     14263     14265     14260     14263     14266     14264     14263     14265
     14264     14263     14266     14265     14263     14266     14263     14266     14267
     14263     14266     14268     14263     14266     14269     14267     14266     14268
     14267     14266     14269     14268     14266     14269     14266     14269     14270
     14266     14269     14271     14266     14269     14272     14270     14269     14271
     14270     14269     14272     14271     14269     14272     14269     14272     14273
     14269     14272     14274     14269     14272     14275     14273     14272     14274
     14273     14272     14275     14274     14272     14275     14272     14275     14276
     14272     14275     14277     14272     14275     14278     14276     14275     14277
     14276     14275     14278     14277     14275     14278     14275     14278     14279
     14275     14278     14280     14275     14278     14281     14279     14278     14280
     14279     14278     14281     14280     14278     14281     14278     14281     14282
     14278     14281     14283     14278     14281     14284     14282     14281     14283
     14282     14281     14284     14283     14281     14284     14235     14285     14286
     14235     14285     14287     14235     14285     14288     14286     14285     14287
     14286     14285     14288     14287     14285     14288     14285     14288     14289
     14285     14288     14290     14285     14288     14291     14289     14288     14290
     14289     14288     14291     14290     14288     14291     14288     14291     14292
     14288     14291     14293     14288     14291     14294     14292     14291     14293
     14292     14291     14294     14293     14291     14294     14291     14294     14295
     14291     14294     14296     14291     14294     14297     14295     14294     14296
     14295     14294     14297     14296     14294     14297     14294     14297     14298
     14294     14297     14299     14294     14297     14300     14298     14297     14299
     14298     14297     14300     14299     14297     14300     14297     14300     14301
     14297     14300     14302     14297     14300     14303     14301     14300     14302
     14301     14300     14303     14302     14300     14303     14300     14303     14304
     14300     14303     14305     14300     14303     14306     14304     14303     14305
     14304     14303     14306     14305     14303     14306     14303     14306     14307
     14303     14306     14308     14303     14306     14309     14307     14306     14308
     14307     14306     14309     14308     14306     14309     14306     14309     14310
     14306     14309     14311     14306     14309     14312     14310     14309     14311
     14310     14309     14312     14311     14309     14312     14309     14312     14313
     14309     14312     14314     14309     14312     14315     14313     14312     14314
     14313     14312     14315     14314     14312     14315     14312     14315     14316
     14312     14315     14317     14312     14315     14318     14316     14315     14317
     14316     14315     14318     14317     14315     14318     14315     14318     14319
     14315     14318     14320     14315     14318     14321     14319     14318     14320
     14319     14318     14321     14320     14318     14321     14318     14321     14322
     14318     14321     14323     14318     14321     14324     14322     14321     14323
     14322     14321     14324     14323     14321     14324     14321     14324     14325
     14321     14324     14326     14321     14324     14327     14325     14324     14326
     14325     14324     14327     14326     14324     14327     14329     14328     14332
     14329     14328     14336     14329     14328     14340     14332     14328     14336
     14332     14328     14340     14336     14328     14340     14328     14329     14330
     14328     14329     14331     14328     14329     14344     14330     14329     14331
     14330     14329     14344     14331     14329     14344     14328     14332     14333
     14328     14332     14334     14328     14332     14335     14333     14332     14334
     14333     14332     14335     14334     14332     14335     14328     14336     14337
     14328     14336     14338     14328     14336     14339     14337     14336     14338
     14337     14336     14339     14338     14336     14339     14328     14340     14341
     14328     14340     14342     14328     14340     14343     14341     14340     14342
     14341     14340     14343     14342     14340     14343     14329     14344     14345
     14329     14344     14346     14329     14344     14350     14345     14344     14346
     14345     14344     14350     14346     14344     14350     14348     14347     14349
     14348     14347     14350     14348     14347     14351     14349     14347     14350
     14349     14347     14351     14350     14347     14351     14344     14350     14347
     14347     14351     14352     14351     14352     14353     14351     14352     14354
     14351     14352     14355     14353     14352     14354     14353     14352     14355
     14354     14352     14355     14352     14355     14356     14352     14355     14357
     14352     14355     14363     14356     14355     14357     14356     14355     14363
     14357     14355     14363     14355     14357     14358     14357     14358     14359
     14357     14358     14360     14359     14358     14360     14358     14360     14361
     14358     14360     14362     14358     14360     14372     14361     14360     14362
     14361     14360     14372     14362     14360     14372     14355     14363     14364
     14355     14363     14365     14355     14363     14366     14364     14363     14365
     14364     14363     14366     14365     14363     14366     14363     14366     14367
     14366     14367     14368     14366     14367     14369     14368     14367     14369
     14367     14369     14370     14367     14369     14371     14367     14369     14419
     14370     14369     14371     14370     14369     14419     14371     14369     14419
     14360     14372     14373     14360     14372     14374     14360     14372     14375
     14373     14372     14374     14373     14372     14375     14374     14372     14375
     14372     14375     14376     14372     14375     14377     14372     14375     14378
     14376     14375     14377     14376     14375     14378     14377     14375     14378
     14375     14378     14379     14375     14378     14380     14375     14378     14381
     14379     14378     14380     14379     14378     14381     14380     14378     14381
     14378     14381     14382     14378     14381     14383     14378     14381     14384
     14382     14381     14383     14382     14381     14384     14383     14381     14384
     14381     14384     14385     14381     14384     14386     14381     14384     14387
     14385     14384     14386     14385     14384     14387     14386     14384     14387
     14384     14387     14388     14384     14387     14389     14384     14387     14390
     14388     14387     14389     14388     14387     14390     14389     14387     14390
     14387     14390     14391     14387     14390     14392     14391     14390     14392
     14390     14392     14393     14390     14392     14394     14393     14392     14394
     14392     14394     14395     14392     14394     14396     14392     14394     14397
     14395     14394     14396     14395     14394     14397     14396     14394     14397
     14394     14397     14398     14394     14397     14399     14394     14397     14400
     14398     14397     14399     14398     14397     14400     14399     14397     14400
     14397     14400     14401     14397     14400     14402     14397     14400     14403
     14401     14400     14402     14401     14400     14403     14402     14400     14403
     14400     14403     14404     14400     14403     14405     14400     14403     14406
     14404     14403     14405     14404     14403     14406     14405     14403     14406
     14403     14406     14407     14403     14406     14408     14403     14406     14409
     14407     14406     14408     14407     14406     14409     14408     14406     14409
     14406     14409     14410     14406     14409     14411     14406     14409     14412
     14410     14409     14411     14410     14409     14412     14411     14409     14412
     14409     14412     14413     14409     14412     14414     14409     14412     14415
     14413     14412     14414     14413     14412     14415     14414     14412     14415
     14412     14415     14416     14412     14415     14417     14412     14415     14418
     14416     14415     14417     14416     14415     14418     14417     14415     14418
     14369     14419     14420     14369     14419     14421     14369     14419     14422
     14420     14419     14421     14420     14419     14422     14421     14419     14422
     14419     14422     14423     14419     14422     14424     14419     14422     14425
     14423     14422     14424     14423     14422     14425     14424     14422     14425
     14422     14425     14426     14422     14425     14427     14422     14425     14428
     14426     14425     14427     14426     14425     14428     14427     14425     14428
     14425     14428     14429     14425     14428     14430     14425     14428     14431
     14429     14428     14430     14429     14428     14431     14430     14428     14431
     14428     14431     14432     14428     14431     14433     14428     14431     14434
     14432     14431     14433     14432     14431     14434     14433     14431     14434
     14431     14434     14435     14431     14434     14436     14431     14434     14437
     14435     14434     14436     14435     14434     14437     14436     14434     14437
     14434     14437     14438     14434     14437     14439     14434     14437     14440
     14438     14437     14439     14438     14437     14440     14439     14437     14440
     14437     14440     14441     14437     14440     14442     14437     14440     14443
     14441     14440     14442     14441     14440     14443     14442     14440     14443
     14440     14443     14444     14440     14443     14445     14440     14443     14446
     14444     14443     14445     14444     14443     14446     14445     14443     14446
     14443     14446     14447     14443     14446     14448     14443     14446     14449
     14447     14446     14448     14447     14446     14449     14448     14446     14449
     14446     14449     14450     14446     14449     14451     14446     14449     14452
     14450     14449     14451     14450     14449     14452     14451     14449     14452
     14449     14452     14453     14449     14452     14454     14449     14452     14455
     14453     14452     14454     14453     14452     14455     14454     14452     14455
     14452     14455     14456     14452     14455     14457     14452     14455     14458
     14456     14455     14457     14456     14455     14458     14457     14455     14458
     14455     14458     14459     14455     14458     14460     14455     14458     14461
     14459     14458     14460     14459     14458     14461     14460     14458     14461
     14463     14462     14466     14463     14462     14470     14463     14462     14474
     14466     14462     14470     14466     14462     14474     14470     14462     14474
     14462     14463     14464     14462     14463     14465     14462     14463     14478
     14464     14463     14465     14464     14463     14478     14465     14463     14478
     14462     14466     14467     14462     14466     14468     14462     14466     14469
     14467     14466     14468     14467     14466     14469     14468     14466     14469
     14462     14470     14471     14462     14470     14472     14462     14470     14473
     14471     14470     14472     14471     14470     14473     14472     14470     14473
     14462     14474     14475     14462     14474     14476     14462     14474     14477
     14475     14474     14476     14475     14474     14477     14476     14474     14477
     14463     14478     14479     14463     14478     14480     14463     14478     14484
     14479     14478     14480     14479     14478     14484     14480     14478     14484
     14482     14481     14483     14482     14481     14484     14482     14481     14485
     14483     14481     14484     14483     14481     14485     14484     14481     14485
     14478     14484     14481     14481     14485     14486     14485     14486     14487
     14485     14486     14488     14485     14486     14489     14487     14486     14488
     14487     14486     14489     14488     14486     14489     14486     14489     14490
     14486     14489     14491     14486     14489     14497     14490     14489     14491
     14490     14489     14497     14491     14489     14497     14489     14491     14492
     14491     14492     14493     14491     14492     14494     14493     14492     14494
     14492     14494     14495     14492     14494     14496     14492     14494     14506
     14495     14494     14496     14495     14494     14506     14496     14494     14506
     14489     14497     14498     14489     14497     14499     14489     14497     14500
     14498     14497     14499     14498     14497     14500     14499     14497     14500
     14497     14500     14501     14500     14501     14502     14500     14501     14503
     14502     14501     14503     14501     14503     14504     14501     14503     14505
     14501     14503     14553     14504     14503     14505     14504     14503     14553
     14505     14503     14553     14494     14506     14507     14494     14506     14508
     14494     14506     14509     14507     14506     14508     14507     14506     14509
     14508     14506     14509     14506     14509     14510     14506     14509     14511
     14506     14509     14512     14510     14509     14511     14510     14509     14512
     14511     14509     14512     14509     14512     14513     14509     14512     14514
     14509     14512     14515     14513     14512     14514     14513     14512     14515
     14514     14512     14515     14512     14515     14516     14512     14515     14517
     14512     14515     14518     14516     14515     14517     14516     14515     14518
     14517     14515     14518     14515     14518     14519     14515     14518     14520
     14515     14518     14521     14519     14518     14520     14519     14518     14521
     14520     14518     14521     14518     14521     14522     14518     14521     14523
     14518     14521     14524     14522     14521     14523     14522     14521     14524
     14523     14521     14524     14521     14524     14525     14521     14524     14526
     14525     14524     14526     14524     14526     14527     14524     14526     14528
     14527     14526     14528     14526     14528     14529     14526     14528     14530
     14526     14528     14531     14529     14528     14530     14529     14528     14531
     14530     14528     14531     14528     14531     14532     14528     14531     14533
     14528     14531     14534     14532     14531     14533     14532     14531     14534
     14533     14531     14534     14531     14534     14535     14531     14534     14536
     14531     14534     14537     14535     14534     14536     14535     14534     14537
     14536     14534     14537     14534     14537     14538     14534     14537     14539
     14534     14537     14540     14538     14537     14539     14538     14537     14540
     14539     14537     14540     14537     14540     14541     14537     14540     14542
     14537     14540     14543     14541     14540     14542     14541     14540     14543
     14542     14540     14543     14540     14543     14544     14540     14543     14545
     14540     14543     14546     14544     14543     14545     14544     14543     14546
     14545     14543     14546     14543     14546     14547     14543     14546     14548
     14543     14546     14549     14547     14546     14548     14547     14546     14549
     14548     14546     14549     14546     14549     14550     14546     14549     14551
     14546     14549     14552     14550     14549     14551     14550     14549     14552
     14551     14549     14552     14503     14553     14554     14503     14553     14555
     14503     14553     14556     14554     14553     14555     14554     14553     14556
     14555     14553     14556     14553     14556     14557     14553     14556     14558
     14553     14556     14559     14557     14556     14558     14557     14556     14559
     14558     14556     14559     14556     14559     14560     14556     14559     14561
     14556     14559     14562     14560     14559     14561     14560     14559     14562
     14561     14559     14562     14559     14562     14563     14559     14562     14564
     14559     14562     14565     14563     14562     14564     14563     14562     14565
     14564     14562     14565     14562     14565     14566     14562     14565     14567
     14562     14565     14568     14566     14565     14567     14566     14565     14568
     14567     14565     14568     14565     14568     14569     14565     14568     14570
     14565     14568     14571     14569     14568     14570     14569     14568     14571
     14570     14568     14571     14568     14571     14572     14568     14571     14573
     14568     14571     14574     14572     14571     14573     14572     14571     14574
     14573     14571     14574     14571     14574     14575     14571     14574     14576
     14571     14574     14577     14575     14574     14576     14575     14574     14577
     14576     14574     14577     14574     14577     14578     14574     14577     14579
     14574     14577     14580     14578     14577     14579     14578     14577     14580
     14579     14577     14580     14577     14580     14581     14577     14580     14582
     14577     14580     14583     14581     14580     14582     14581     14580     14583
     14582     14580     14583     14580     14583     14584     14580     14583     14585
     14580     14583     14586     14584     14583     14585     14584     14583     14586
     14585     14583     14586     14583     14586     14587     14583     14586     14588
     14583     14586     14589     14587     14586     14588     14587     14586     14589
     14588     14586     14589     14586     14589     14590     14586     14589     14591
     14586     14589     14592     14590     14589     14591     14590     14589     14592
     14591     14589     14592     14589     14592     14593     14589     14592     14594
     14589     14592     14595     14593     14592     14594     14593     14592     14595
     14594     14592     14595     14597     14596     14600     14597     14596     14604
     14597     14596     14608     14600     14596     14604     14600     14596     14608
     14604     14596     14608     14596     14597     14598     14596     14597     14599
     14596     14597     14612     14598     14597     14599     14598     14597     14612
     14599     14597     14612     14596     14600     14601     14596     14600     14602
     14596     14600     14603     14601     14600     14602     14601     14600     14603
     14602     14600     14603     14596     14604     14605     14596     14604     14606
     14596     14604     14607     14605     14604     14606     14605     14604     14607
     14606     14604     14607     14596     14608     14609     14596     14608     14610
     14596     14608     14611     14609     14608     14610     14609     14608     14611
     14610     14608     14611     14597     14612     14613     14597     14612     14614
     14597     14612     14618     14613     14612     14614     14613     14612     14618
     14614     14612     14618     14616     14615     14617     14616     14615     14618
     14616     14615     14619     14617     14615     14618     14617     14615     14619
     14618     14615     14619     14612     14618     14615     14615     14619     14620
     14619     14620     14621     14619     14620     14622     14619     14620     14623
     14621     14620     14622     14621     14620     14623     14622     14620     14623
     14620     14623     14624     14620     14623     14625     14620     14623     14631
     14624     14623     14625     14624     14623     14631     14625     14623     14631
     14623     14625     14626     14625     14626     14627     14625     14626     14628
     14627     14626     14628     14626     14628     14629     14626     14628     14630
     14626     14628     14640     14629     14628     14630     14629     14628     14640
     14630     14628     14640     14623     14631     14632     14623     14631     14633
     14623     14631     14634     14632     14631     14633     14632     14631     14634
     14633     14631     14634     14631     14634     14635     14634     14635     14636
     14634     14635     14637     14636     14635     14637     14635     14637     14638
     14635     14637     14639     14635     14637     14687     14638     14637     14639
     14638     14637     14687     14639     14637     14687     14628     14640     14641
     14628     14640     14642     14628     14640     14643     14641     14640     14642
     14641     14640     14643     14642     14640     14643     14640     14643     14644
     14640     14643     14645     14640     14643     14646     14644     14643     14645
     14644     14643     14646     14645     14643     14646     14643     14646     14647
     14643     14646     14648     14643     14646     14649     14647     14646     14648
     14647     14646     14649     14648     14646     14649     14646     14649     14650
     14646     14649     14651     14646     14649     14652     14650     14649     14651
     14650     14649     14652     14651     14649     14652     14649     14652     14653
     14649     14652     14654     14649     14652     14655     14653     14652     14654
     14653     14652     14655     14654     14652     14655     14652     14655     14656
     14652     14655     14657     14652     14655     14658     14656     14655     14657
     14656     14655     14658     14657     14655     14658     14655     14658     14659
     14655     14658     14660     14659     14658     14660     14658     14660     14661
     14658     14660     14662     14661     14660     14662     14660     14662     14663
     14660     14662     14664     14660     14662     14665     14663     14662     14664
     14663     14662     14665     14664     14662     14665     14662     14665     14666
     14662     14665     14667     14662     14665     14668     14666     14665     14667
     14666     14665     14668     14667     14665     14668     14665     14668     14669
     14665     14668     14670     14665     14668     14671     14669     14668     14670
     14669     14668     14671     14670     14668     14671     14668     14671     14672
     14668     14671     14673     14668     14671     14674     14672     14671     14673
     14672     14671     14674     14673     14671     14674     14671     14674     14675
     14671     14674     14676     14671     14674     14677     14675     14674     14676
     14675     14674     14677     14676     14674     14677     14674     14677     14678
     14674     14677     14679     14674     14677     14680     14678     14677     14679
     14678     14677     14680     14679     14677     14680     14677     14680     14681
     14677     14680     14682     14677     14680     14683     14681     14680     14682
     14681     14680     14683     14682     14680     14683     14680     14683     14684
     14680     14683     14685     14680     14683     14686     14684     14683     14685
     14684     14683     14686     14685     14683     14686     14637     14687     14688
     14637     14687     14689     14637     14687     14690     14688     14687     14689
     14688     14687     14690     14689     14687     14690     14687     14690     14691
     14687     14690     14692     14687     14690     14693     14691     14690     14692
     14691     14690     14693     14692     14690     14693     14690     14693     14694
     14690     14693     14695     14690     14693     14696     14694     14693     14695
     14694     14693     14696     14695     14693     14696     14693     14696     14697
     14693     14696     14698     14693     14696     14699     14697     14696     14698
     14697     14696     14699     14698     14696     14699     14696     14699     14700
     14696     14699     14701     14696     14699     14702     14700     14699     14701
     14700     14699     14702     14701     14699     14702     14699     14702     14703
     14699     14702     14704     14699     14702     14705     14703     14702     14704
     14703     14702     14705     14704     14702     14705     14702     14705     14706
     14702     14705     14707     14702     14705     14708     14706     14705     14707
     14706     14705     14708     14707     14705     14708     14705     14708     14709
     14705     14708     14710     14705     14708     14711     14709     14708     14710
     14709     14708     14711     14710     14708     14711     14708     14711     14712
     14708     14711     14713     14708     14711     14714     14712     14711     14713
     14712     14711     14714     14713     14711     14714     14711     14714     14715
     14711     14714     14716     14711     14714     14717     14715     14714     14716
     14715     14714     14717     14716     14714     14717     14714     14717     14718
     14714     14717     14719     14714     14717     14720     14718     14717     14719
     14718     14717     14720     14719     14717     14720     14717     14720     14721
     14717     14720     14722     14717     14720     14723     14721     14720     14722
     14721     14720     14723     14722     14720     14723     14720     14723     14724
     14720     14723     14725     14720     14723     14726     14724     14723     14725
     14724     14723     14726     14725     14723     14726     14723     14726     14727
     14723     14726     14728     14723     14726     14729     14727     14726     14728
     14727     14726     14729     14728     14726     14729     14731     14730     14734
     14731     14730     14738     14731     14730     14742     14734     14730     14738
     14734     14730     14742     14738     14730     14742     14730     14731     14732
     14730     14731     14733     14730     14731     14746     14732     14731     14733
     14732     14731     14746     14733     14731     14746     14730     14734     14735
     14730     14734     14736     14730     14734     14737     14735     14734     14736
     14735     14734     14737     14736     14734     14737     14730     14738     14739
     14730     14738     14740     14730     14738     14741     14739     14738     14740
     14739     14738     14741     14740     14738     14741     14730     14742     14743
     14730     14742     14744     14730     14742     14745     14743     14742     14744
     14743     14742     14745     14744     14742     14745     14731     14746     14747
     14731     14746     14748     14731     14746     14752     14747     14746     14748
     14747     14746     14752     14748     14746     14752     14750     14749     14751
     14750     14749     14752     14750     14749     14753     14751     14749     14752
     14751     14749     14753     14752     14749     14753     14746     14752     14749
     14749     14753     14754     14753     14754     14755     14753     14754     14756
     14753     14754     14757     14755     14754     14756     14755     14754     14757
     14756     14754     14757     14754     14757     14758     14754     14757     14759
     14754     14757     14765     14758     14757     14759     14758     14757     14765
     14759     14757     14765     14757     14759     14760     14759     14760     14761
     14759     14760     14762     14761     14760     14762     14760     14762     14763
     14760     14762     14764     14760     14762     14774     14763     14762     14764
     14763     14762     14774     14764     14762     14774     14757     14765     14766
     14757     14765     14767     14757     14765     14768     14766     14765     14767
     14766     14765     14768     14767     14765     14768     14765     14768     14769
     14768     14769     14770     14768     14769     14771     14770     14769     14771
     14769     14771     14772     14769     14771     14773     14769     14771     14821
     14772     14771     14773     14772     14771     14821     14773     14771     14821
     14762     14774     14775     14762     14774     14776     14762     14774     14777
     14775     14774     14776     14775     14774     14777     14776     14774     14777
     14774     14777     14778     14774     14777     14779     14774     14777     14780
     14778     14777     14779     14778     14777     14780     14779     14777     14780
     14777     14780     14781     14777     14780     14782     14777     14780     14783
     14781     14780     14782     14781     14780     14783     14782     14780     14783
     14780     14783     14784     14780     14783     14785     14780     14783     14786
     14784     14783     14785     14784     14783     14786     14785     14783     14786
     14783     14786     14787     14783     14786     14788     14783     14786     14789
     14787     14786     14788     14787     14786     14789     14788     14786     14789
     14786     14789     14790     14786     14789     14791     14786     14789     14792
     14790     14789     14791     14790     14789     14792     14791     14789     14792
     14789     14792     14793     14789     14792     14794     14793     14792     14794
     14792     14794     14795     14792     14794     14796     14795     14794     14796
     14794     14796     14797     14794     14796     14798     14794     14796     14799
     14797     14796     14798     14797     14796     14799     14798     14796     14799
     14796     14799     14800     14796     14799     14801     14796     14799     14802
     14800     14799     14801     14800     14799     14802     14801     14799     14802
     14799     14802     14803     14799     14802     14804     14799     14802     14805
     14803     14802     14804     14803     14802     14805     14804     14802     14805
     14802     14805     14806     14802     14805     14807     14802     14805     14808
     14806     14805     14807     14806     14805     14808     14807     14805     14808
     14805     14808     14809     14805     14808     14810     14805     14808     14811
     14809     14808     14810     14809     14808     14811     14810     14808     14811
     14808     14811     14812     14808     14811     14813     14808     14811     14814
     14812     14811     14813     14812     14811     14814     14813     14811     14814
     14811     14814     14815     14811     14814     14816     14811     14814     14817
     14815     14814     14816     14815     14814     14817     14816     14814     14817
     14814     14817     14818     14814     14817     14819     14814     14817     14820
     14818     14817     14819     14818     14817     14820     14819     14817     14820
     14771     14821     14822     14771     14821     14823     14771     14821     14824
     14822     14821     14823     14822     14821     14824     14823     14821     14824
     14821     14824     14825     14821     14824     14826     14821     14824     14827
     14825     14824     14826     14825     14824     14827     14826     14824     14827
     14824     14827     14828     14824     14827     14829     14824     14827     14830
     14828     14827     14829     14828     14827     14830     14829     14827     14830
     14827     14830     14831     14827     14830     14832     14827     14830     14833
     14831     14830     14832     14831     14830     14833     14832     14830     14833
     14830     14833     14834     14830     14833     14835     14830     14833     14836
     14834     14833     14835     14834     14833     14836     14835     14833     14836
     14833     14836     14837     14833     14836     14838     14833     14836     14839
     14837     14836     14838     14837     14836     14839     14838     14836     14839
     14836     14839     14840     14836     14839     14841     14836     14839     14842
     14840     14839     14841     14840     14839     14842     14841     14839     14842
     14839     14842     14843     14839     14842     14844     14839     14842     14845
     14843     14842     14844     14843     14842     14845     14844     14842     14845
     14842     14845     14846     14842     14845     14847     14842     14845     14848
     14846     14845     14847     14846     14845     14848     14847     14845     14848
     14845     14848     14849     14845     14848     14850     14845     14848     14851
     14849     14848     14850     14849     14848     14851     14850     14848     14851
     14848     14851     14852     14848     14851     14853     14848     14851     14854
     14852     14851     14853     14852     14851     14854     14853     14851     14854
     14851     14854     14855     14851     14854     14856     14851     14854     14857
     14855     14854     14856     14855     14854     14857     14856     14854     14857
     14854     14857     14858     14854     14857     14859     14854     14857     14860
     14858     14857     14859     14858     14857     14860     14859     14857     14860
     14857     14860     14861     14857     14860     14862     14857     14860     14863
     14861     14860     14862     14861     14860     14863     14862     14860     14863
     14865     14864     14866     14865     14864     14867     14865     14864     14868
     14866     14864     14867     14866     14864     14868     14867     14864     14868
     14864     14868     14869     14864     14868     14870     14864     14868     14873
     14869     14868     14870     14869     14868     14873     14870     14868     14873
     14868     14870     14871     14868     14870     14872     14871     14870     14872
     14868     14873     14874     14868     14873     14875     14868     14873     14879
     14874     14873     14875     14874     14873     14879     14875     14873     14879
     14877     14876     14878     14877     14876     14879     14877     14876     14880
     14878     14876     14879     14878     14876     14880     14879     14876     14880
     14873     14879     14876     14876     14880     14881     14880     14881     14882
     14880     14881     14883     14880     14881     14884     14882     14881     14883
     14882     14881     14884     14883     14881     14884     14881     14884     14885
     14881     14884     14886     14881     14884     14892     14885     14884     14886
     14885     14884     14892     14886     14884     14892     14884     14886     14887
     14886     14887     14888     14886     14887     14889     14888     14887     14889
     14887     14889     14890     14887     14889     14891     14887     14889     14901
     14890     14889     14891     14890     14889     14901     14891     14889     14901
     14884     14892     14893     14884     14892     14894     14884     14892     14895
     14893     14892     14894     14893     14892     14895     14894     14892     14895
     14892     14895     14896     14895     14896     14897     14895     14896     14898
     14897     14896     14898     14896     14898     14899     14896     14898     14900
     14896     14898     14948     14899     14898     14900     14899     14898     14948
     14900     14898     14948     14889     14901     14902     14889     14901     14903
     14889     14901     14904     14902     14901     14903     14902     14901     14904
     14903     14901     14904     14901     14904     14905     14901     14904     14906
     14901     14904     14907     14905     14904     14906     14905     14904     14907
     14906     14904     14907     14904     14907     14908     14904     14907     14909
     14904     14907     14910     14908     14907     14909     14908     14907     14910
     14909     14907     14910     14907     14910     14911     14907     14910     14912
     14907     14910     14913     14911     14910     14912     14911     14910     14913
     14912     14910     14913     14910     14913     14914     14910     14913     14915
     14910     14913     14916     14914     14913     14915     14914     14913     14916
     14915     14913     14916     14913     14916     14917     14913     14916     14918
     14913     14916     14919     14917     14916     14918     14917     14916     14919
     14918     14916     14919     14916     14919     14920     14916     14919     14921
     14920     14919     14921     14919     14921     14922     14919     14921     14923
     14922     14921     14923     14921     14923     14924     14921     14923     14925
     14921     14923     14926     14924     14923     14925     14924     14923     14926
     14925     14923     14926     14923     14926     14927     14923     14926     14928
     14923     14926     14929     14927     14926     14928     14927     14926     14929
     14928     14926     14929     14926     14929     14930     14926     14929     14931
     14926     14929     14932     14930     14929     14931     14930     14929     14932
     14931     14929     14932     14929     14932     14933     14929     14932     14934
     14929     14932     14935     14933     14932     14934     14933     14932     14935
     14934     14932     14935     14932     14935     14936     14932     14935     14937
     14932     14935     14938     14936     14935     14937     14936     14935     14938
     14937     14935     14938     14935     14938     14939     14935     14938     14940
     14935     14938     14941     14939     14938     14940     14939     14938     14941
     14940     14938     14941     14938     14941     14942     14938     14941     14943
     14938     14941     14944     14942     14941     14943     14942     14941     14944
     14943     14941     14944     14941     14944     14945     14941     14944     14946
     14941     14944     14947     14945     14944     14946     14945     14944     14947
     14946     14944     14947     14898     14948     14949     14898     14948     14950
     14898     14948     14951     14949     14948     14950     14949     14948     14951
     14950     14948     14951     14948     14951     14952     14948     14951     14953
     14948     14951     14954     14952     14951     14953     14952     14951     14954
     14953     14951     14954     14951     14954     14955     14951     14954     14956
     14951     14954     14957     14955     14954     14956     14955     14954     14957
     14956     14954     14957     14954     14957     14958     14954     14957     14959
     14954     14957     14960     14958     14957     14959     14958     14957     14960
     14959     14957     14960     14957     14960     14961     14957     14960     14962
     14957     14960     14963     14961     14960     14962     14961     14960     14963
     14962     14960     14963     14960     14963     14964     14960     14963     14965
     14960     14963     14966     14964     14963     14965     14964     14963     14966
     14965     14963     14966     14963     14966     14967     14963     14966     14968
     14963     14966     14969     14967     14966     14968     14967     14966     14969
     14968     14966     14969     14966     14969     14970     14966     14969     14971
     14966     14969     14972     14970     14969     14971     14970     14969     14972
     14971     14969     14972     14969     14972     14973     14969     14972     14974
     14969     14972     14975     14973     14972     14974     14973     14972     14975
     14974     14972     14975     14972     14975     14976     14972     14975     14977
     14972     14975     14978     14976     14975     14977     14976     14975     14978
     14977     14975     14978     14975     14978     14979     14975     14978     14980
     14975     14978     14981     14979     14978     14980     14979     14978     14981
     14980     14978     14981     14978     14981     14982     14978     14981     14983
     14978     14981     14984     14982     14981     14983     14982     14981     14984
     14983     14981     14984     14981     14984     14985     14981     14984     14986
     14981     14984     14987     14985     14984     14986     14985     14984     14987
     14986     14984     14987     14984     14987     14988     14984     14987     14989
     14984     14987     14990     14988     14987     14989     14988     14987     14990
     14989     14987     14990     14992     14991     14995     14992     14991     14999
     14992     14991     15003     14995     14991     14999     14995     14991     15003
     14999     14991     15003     14991     14992     14993     14991     14992     14994
     14991     14992     15007     14993     14992     14994     14993     14992     15007
     14994     14992     15007     14991     14995     14996     14991     14995     14997
     14991     14995     14998     14996     14995     14997     14996     14995     14998
     14997     14995     14998     14991     14999     15000     14991     14999     15001
     14991     14999     15002     15000     14999     15001     15000     14999     15002
     15001     14999     15002     14991     15003     15004     14991     15003     15005
     14991     15003     15006     15004     15003     15005     15004     15003     15006
     15005     15003     15006     14992     15007     15008     14992     15007     15009
     14992     15007     15013     15008     15007     15009     15008     15007     15013
     15009     15007     15013     15011     15010     15012     15011     15010     15013
     15011     15010     15014     15012     15010     15013     15012     15010     15014
     15013     15010     15014     15007     15013     15010     15010     15014     15015
     15014     15015     15016     15014     15015     15017     15014     15015     15018
     15016     15015     15017     15016     15015     15018     15017     15015     15018
     15015     15018     15019     15015     15018     15020     15015     15018     15026
     15019     15018     15020     15019     15018     15026     15020     15018     15026
     15018     15020     15021     15020     15021     15022     15020     15021     15023
     15022     15021     15023     15021     15023     15024     15021     15023     15025
     15021     15023     15035     15024     15023     15025     15024     15023     15035
     15025     15023     15035     15018     15026     15027     15018     15026     15028
     15018     15026     15029     15027     15026     15028     15027     15026     15029
     15028     15026     15029     15026     15029     15030     15029     15030     15031
     15029     15030     15032     15031     15030     15032     15030     15032     15033
     15030     15032     15034     15030     15032     15082     15033     15032     15034
     15033     15032     15082     15034     15032     15082     15023     15035     15036
     15023     15035     15037     15023     15035     15038     15036     15035     15037
     15036     15035     15038     15037     15035     15038     15035     15038     15039
     15035     15038     15040     15035     15038     15041     15039     15038     15040
     15039     15038     15041     15040     15038     15041     15038     15041     15042
     15038     15041     15043     15038     15041     15044     15042     15041     15043
     15042     15041     15044     15043     15041     15044     15041     15044     15045
     15041     15044     15046     15041     15044     15047     15045     15044     15046
     15045     15044     15047     15046     15044     15047     15044     15047     15048
     15044     15047     15049     15044     15047     15050     15048     15047     15049
     15048     15047     15050     15049     15047     15050     15047     15050     15051
     15047     15050     15052     15047     15050     15053     15051     15050     15052
     15051     15050     15053     15052     15050     15053     15050     15053     15054
     15050     15053     15055     15054     15053     15055     15053     15055     15056
     15053     15055     15057     15056     15055     15057     15055     15057     15058
     15055     15057     15059     15055     15057     15060     15058     15057     15059
     15058     15057     15060     15059     15057     15060     15057     15060     15061
     15057     15060     15062     15057     15060     15063     15061     15060     15062
     15061     15060     15063     15062     15060     15063     15060     15063     15064
     15060     15063     15065     15060     15063     15066     15064     15063     15065
     15064     15063     15066     15065     15063     15066     15063     15066     15067
     15063     15066     15068     15063     15066     15069     15067     15066     15068
     15067     15066     15069     15068     15066     15069     15066     15069     15070
     15066     15069     15071     15066     15069     15072     15070     15069     15071
     15070     15069     15072     15071     15069     15072     15069     15072     15073
     15069     15072     15074     15069     15072     15075     15073     15072     15074
     15073     15072     15075     15074     15072     15075     15072     15075     15076
     15072     15075     15077     15072     15075     15078     15076     15075     15077
     15076     15075     15078     15077     15075     15078     15075     15078     15079
     15075     15078     15080     15075     15078     15081     15079     15078     15080
     15079     15078     15081     15080     15078     15081     15032     15082     15083
     15032     15082     15084     15032     15082     15085     15083     15082     15084
     15083     15082     15085     15084     15082     15085     15082     15085     15086
     15082     15085     15087     15082     15085     15088     15086     15085     15087
     15086     15085     15088     15087     15085     15088     15085     15088     15089
     15085     15088     15090     15085     15088     15091     15089     15088     15090
     15089     15088     15091     15090     15088     15091     15088     15091     15092
     15088     15091     15093     15088     15091     15094     15092     15091     15093
     15092     15091     15094     15093     15091     15094     15091     15094     15095
     15091     15094     15096     15091     15094     15097     15095     15094     15096
     15095     15094     15097     15096     15094     15097     15094     15097     15098
     15094     15097     15099     15094     15097     15100     15098     15097     15099
     15098     15097     15100     15099     15097     15100     15097     15100     15101
     15097     15100     15102     15097     15100     15103     15101     15100     15102
     15101     15100     15103     15102     15100     15103     15100     15103     15104
     15100     15103     15105     15100     15103     15106     15104     15103     15105
     15104     15103     15106     15105     15103     15106     15103     15106     15107
     15103     15106     15108     15103     15106     15109     15107     15106     15108
     15107     15106     15109     15108     15106     15109     15106     15109     15110
     15106     15109     15111     15106     15109     15112     15110     15109     15111
     15110     15109     15112     15111     15109     15112     15109     15112     15113
     15109     15112     15114     15109     15112     15115     15113     15112     15114
     15113     15112     15115     15114     15112     15115     15112     15115     15116
     15112     15115     15117     15112     15115     15118     15116     15115     15117
     15116     15115     15118     15117     15115     15118     15115     15118     15119
     15115     15118     15120     15115     15118     15121     15119     15118     15120
     15119     15118     15121     15120     15118     15121     15118     15121     15122
     15118     15121     15123     15118     15121     15124     15122     15121     15123
     15122     15121     15124     15123     15121     15124     15126     15125     15129
     15126     15125     15133     15126     15125     15137     15129     15125     15133
     15129     15125     15137     15133     15125     15137     15125     15126     15127
     15125     15126     15128     15125     15126     15141     15127     15126     15128
     15127     15126     15141     15128     15126     15141     15125     15129     15130
     15125     15129     15131     15125     15129     15132     15130     15129     15131
     15130     15129     15132     15131     15129     15132     15125     15133     15134
     15125     15133     15135     15125     15133     15136     15134     15133     15135
     15134     15133     15136     15135     15133     15136     15125     15137     15138
     15125     15137     15139     15125     15137     15140     15138     15137     15139
     15138     15137     15140     15139     15137     15140     15126     15141     15142
     15126     15141     15143     15126     15141     15147     15142     15141     15143
     15142     15141     15147     15143     15141     15147     15145     15144     15146
     15145     15144     15147     15145     15144     15148     15146     15144     15147
     15146     15144     15148     15147     15144     15148     15141     15147     15144
     15144     15148     15149     15148     15149     15150     15148     15149     15151
     15148     15149     15152     15150     15149     15151     15150     15149     15152
     15151     15149     15152     15149     15152     15153     15149     15152     15154
     15149     15152     15160     15153     15152     15154     15153     15152     15160
     15154     15152     15160     15152     15154     15155     15154     15155     15156
     15154     15155     15157     15156     15155     15157     15155     15157     15158
     15155     15157     15159     15155     15157     15169     15158     15157     15159
     15158     15157     15169     15159     15157     15169     15152     15160     15161
     15152     15160     15162     15152     15160     15163     15161     15160     15162
     15161     15160     15163     15162     15160     15163     15160     15163     15164
     15163     15164     15165     15163     15164     15166     15165     15164     15166
     15164     15166     15167     15164     15166     15168     15164     15166     15216
     15167     15166     15168     15167     15166     15216     15168     15166     15216
     15157     15169     15170     15157     15169     15171     15157     15169     15172
     15170     15169     15171     15170     15169     15172     15171     15169     15172
     15169     15172     15173     15169     15172     15174     15169     15172     15175
     15173     15172     15174     15173     15172     15175     15174     15172     15175
     15172     15175     15176     15172     15175     15177     15172     15175     15178
     15176     15175     15177     15176     15175     15178     15177     15175     15178
     15175     15178     15179     15175     15178     15180     15175     15178     15181
     15179     15178     15180     15179     15178     15181     15180     15178     15181
     15178     15181     15182     15178     15181     15183     15178     15181     15184
     15182     15181     15183     15182     15181     15184     15183     15181     15184
     15181     15184     15185     15181     15184     15186     15181     15184     15187
     15185     15184     15186     15185     15184     15187     15186     15184     15187
     15184     15187     15188     15184     15187     15189     15188     15187     15189
     15187     15189     15190     15187     15189     15191     15190     15189     15191
     15189     15191     15192     15189     15191     15193     15189     15191     15194
     15192     15191     15193     15192     15191     15194     15193     15191     15194
     15191     15194     15195     15191     15194     15196     15191     15194     15197
     15195     15194     15196     15195     15194     15197     15196     15194     15197
     15194     15197     15198     15194     15197     15199     15194     15197     15200
     15198     15197     15199     15198     15197     15200     15199     15197     15200
     15197     15200     15201     15197     15200     15202     15197     15200     15203
     15201     15200     15202     15201     15200     15203     15202     15200     15203
     15200     15203     15204     15200     15203     15205     15200     15203     15206
     15204     15203     15205     15204     15203     15206     15205     15203     15206
     15203     15206     15207     15203     15206     15208     15203     15206     15209
     15207     15206     15208     15207     15206     15209     15208     15206     15209
     15206     15209     15210     15206     15209     15211     15206     15209     15212
     15210     15209     15211     15210     15209     15212     15211     15209     15212
     15209     15212     15213     15209     15212     15214     15209     15212     15215
     15213     15212     15214     15213     15212     15215     15214     15212     15215
     15166     15216     15217     15166     15216     15218     15166     15216     15219
     15217     15216     15218     15217     15216     15219     15218     15216     15219
     15216     15219     15220     15216     15219     15221     15216     15219     15222
     15220     15219     15221     15220     15219     15222     15221     15219     15222
     15219     15222     15223     15219     15222     15224     15219     15222     15225
     15223     15222     15224     15223     15222     15225     15224     15222     15225
     15222     15225     15226     15222     15225     15227     15222     15225     15228
     15226     15225     15227     15226     15225     15228     15227     15225     15228
     15225     15228     15229     15225     15228     15230     15225     15228     15231
     15229     15228     15230     15229     15228     15231     15230     15228     15231
     15228     15231     15232     15228     15231     15233     15228     15231     15234
     15232     15231     15233     15232     15231     15234     15233     15231     15234
     15231     15234     15235     15231     15234     15236     15231     15234     15237
     15235     15234     15236     15235     15234     15237     15236     15234     15237
     15234     15237     15238     15234     15237     15239     15234     15237     15240
     15238     15237     15239     15238     15237     15240     15239     15237     15240
     15237     15240     15241     15237     15240     15242     15237     15240     15243
     15241     15240     15242     15241     15240     15243     15242     15240     15243
     15240     15243     15244     15240     15243     15245     15240     15243     15246
     15244     15243     15245     15244     15243     15246     15245     15243     15246
     15243     15246     15247     15243     15246     15248     15243     15246     15249
     15247     15246     15248     15247     15246     15249     15248     15246     15249
     15246     15249     15250     15246     15249     15251     15246     15249     15252
     15250     15249     15251     15250     15249     15252     15251     15249     15252
     15249     15252     15253     15249     15252     15254     15249     15252     15255
     15253     15252     15254     15253     15252     15255     15254     15252     15255
     15252     15255     15256     15252     15255     15257     15252     15255     15258
     15256     15255     15257     15256     15255     15258     15257     15255     15258
     15260     15259     15261     15260     15259     15262     15260     15259     15263
     15261     15259     15262     15261     15259     15263     15262     15259     15263
     15259     15263     15264     15259     15263     15265     15259     15263     15268
     15264     15263     15265     15264     15263     15268     15265     15263     15268
     15263     15265     15266     15263     15265     15267     15266     15265     15267
     15263     15268     15269     15263     15268     15270     15263     15268     15274
     15269     15268     15270     15269     15268     15274     15270     15268     15274
     15272     15271     15273     15272     15271     15274     15272     15271     15275
     15273     15271     15274     15273     15271     15275     15274     15271     15275
     15268     15274     15271     15271     15275     15276     15275     15276     15277
     15275     15276     15278     15275     15276     15279     15277     15276     15278
     15277     15276     15279     15278     15276     15279     15276     15279     15280
     15276     15279     15281     15276     15279     15287     15280     15279     15281
     15280     15279     15287     15281     15279     15287     15279     15281     15282
     15281     15282     15283     15281     15282     15284     15283     15282     15284
     15282     15284     15285     15282     15284     15286     15282     15284     15296
     15285     15284     15286     15285     15284     15296     15286     15284     15296
     15279     15287     15288     15279     15287     15289     15279     15287     15290
     15288     15287     15289     15288     15287     15290     15289     15287     15290
     15287     15290     15291     15290     15291     15292     15290     15291     15293
     15292     15291     15293     15291     15293     15294     15291     15293     15295
     15291     15293     15343     15294     15293     15295     15294     15293     15343
     15295     15293     15343     15284     15296     15297     15284     15296     15298
     15284     15296     15299     15297     15296     15298     15297     15296     15299
     15298     15296     15299     15296     15299     15300     15296     15299     15301
     15296     15299     15302     15300     15299     15301     15300     15299     15302
     15301     15299     15302     15299     15302     15303     15299     15302     15304
     15299     15302     15305     15303     15302     15304     15303     15302     15305
     15304     15302     15305     15302     15305     15306     15302     15305     15307
     15302     15305     15308     15306     15305     15307     15306     15305     15308
     15307     15305     15308     15305     15308     15309     15305     15308     15310
     15305     15308     15311     15309     15308     15310     15309     15308     15311
     15310     15308     15311     15308     15311     15312     15308     15311     15313
     15308     15311     15314     15312     15311     15313     15312     15311     15314
     15313     15311     15314     15311     15314     15315     15311     15314     15316
     15315     15314     15316     15314     15316     15317     15314     15316     15318
     15317     15316     15318     15316     15318     15319     15316     15318     15320
     15316     15318     15321     15319     15318     15320     15319     15318     15321
     15320     15318     15321     15318     15321     15322     15318     15321     15323
     15318     15321     15324     15322     15321     15323     15322     15321     15324
     15323     15321     15324     15321     15324     15325     15321     15324     15326
     15321     15324     15327     15325     15324     15326     15325     15324     15327
     15326     15324     15327     15324     15327     15328     15324     15327     15329
     15324     15327     15330     15328     15327     15329     15328     15327     15330
     15329     15327     15330     15327     15330     15331     15327     15330     15332
     15327     15330     15333     15331     15330     15332     15331     15330     15333
     15332     15330     15333     15330     15333     15334     15330     15333     15335
     15330     15333     15336     15334     15333     15335     15334     15333     15336
     15335     15333     15336     15333     15336     15337     15333     15336     15338
     15333     15336     15339     15337     15336     15338     15337     15336     15339
     15338     15336     15339     15336     15339     15340     15336     15339     15341
     15336     15339     15342     15340     15339     15341     15340     15339     15342
     15341     15339     15342     15293     15343     15344     15293     15343     15345
     15293     15343     15346     15344     15343     15345     15344     15343     15346
     15345     15343     15346     15343     15346     15347     15343     15346     15348
     15343     15346     15349     15347     15346     15348     15347     15346     15349
     15348     15346     15349     15346     15349     15350     15346     15349     15351
     15346     15349     15352     15350     15349     15351     15350     15349     15352
     15351     15349     15352     15349     15352     15353     15349     15352     15354
     15349     15352     15355     15353     15352     15354     15353     15352     15355
     15354     15352     15355     15352     15355     15356     15352     15355     15357
     15352     15355     15358     15356     15355     15357     15356     15355     15358
     15357     15355     15358     15355     15358     15359     15355     15358     15360
     15355     15358     15361     15359     15358     15360     15359     15358     15361
     15360     15358     15361     15358     15361     15362     15358     15361     15363
     15358     15361     15364     15362     15361     15363     15362     15361     15364
     15363     15361     15364     15361     15364     15365     15361     15364     15366
     15361     15364     15367     15365     15364     15366     15365     15364     15367
     15366     15364     15367     15364     15367     15368     15364     15367     15369
     15364     15367     15370     15368     15367     15369     15368     15367     15370
     15369     15367     15370     15367     15370     15371     15367     15370     15372
     15367     15370     15373     15371     15370     15372     15371     15370     15373
     15372     15370     15373     15370     15373     15374     15370     15373     15375
     15370     15373     15376     15374     15373     15375     15374     15373     15376
     15375     15373     15376     15373     15376     15377     15373     15376     15378
     15373     15376     15379     15377     15376     15378     15377     15376     15379
     15378     15376     15379     15376     15379     15380     15376     15379     15381
     15376     15379     15382     15380     15379     15381     15380     15379     15382
     15381     15379     15382     15379     15382     15383     15379     15382     15384
     15379     15382     15385     15383     15382     15384     15383     15382     15385
     15384     15382     15385     15387     15386     15390     15387     15386     15394
     15387     15386     15398     15390     15386     15394     15390     15386     15398
     15394     15386     15398     15386     15387     15388     15386     15387     15389
     15386     15387     15402     15388     15387     15389     15388     15387     15402
     15389     15387     15402     15386     15390     15391     15386     15390     15392
     15386     15390     15393     15391     15390     15392     15391     15390     15393
     15392     15390     15393     15386     15394     15395     15386     15394     15396
     15386     15394     15397     15395     15394     15396     15395     15394     15397
     15396     15394     15397     15386     15398     15399     15386     15398     15400
     15386     15398     15401     15399     15398     15400     15399     15398     15401
     15400     15398     15401     15387     15402     15403     15387     15402     15404
     15387     15402     15408     15403     15402     15404     15403     15402     15408
     15404     15402     15408     15406     15405     15407     15406     15405     15408
     15406     15405     15409     15407     15405     15408     15407     15405     15409
     15408     15405     15409     15402     15408     15405     15405     15409     15410
     15409     15410     15411     15409     15410     15412     15409     15410     15413
     15411     15410     15412     15411     15410     15413     15412     15410     15413
     15410     15413     15414     15410     15413     15415     15410     15413     15421
     15414     15413     15415     15414     15413     15421     15415     15413     15421
     15413     15415     15416     15415     15416     15417     15415     15416     15418
     15417     15416     15418     15416     15418     15419     15416     15418     15420
     15416     15418     15430     15419     15418     15420     15419     15418     15430
     15420     15418     15430     15413     15421     15422     15413     15421     15423
     15413     15421     15424     15422     15421     15423     15422     15421     15424
     15423     15421     15424     15421     15424     15425     15424     15425     15426
     15424     15425     15427     15426     15425     15427     15425     15427     15428
     15425     15427     15429     15425     15427     15477     15428     15427     15429
     15428     15427     15477     15429     15427     15477     15418     15430     15431
     15418     15430     15432     15418     15430     15433     15431     15430     15432
     15431     15430     15433     15432     15430     15433     15430     15433     15434
     15430     15433     15435     15430     15433     15436     15434     15433     15435
     15434     15433     15436     15435     15433     15436     15433     15436     15437
     15433     15436     15438     15433     15436     15439     15437     15436     15438
     15437     15436     15439     15438     15436     15439     15436     15439     15440
     15436     15439     15441     15436     15439     15442     15440     15439     15441
     15440     15439     15442     15441     15439     15442     15439     15442     15443
     15439     15442     15444     15439     15442     15445     15443     15442     15444
     15443     15442     15445     15444     15442     15445     15442     15445     15446
     15442     15445     15447     15442     15445     15448     15446     15445     15447
     15446     15445     15448     15447     15445     15448     15445     15448     15449
     15445     15448     15450     15449     15448     15450     15448     15450     15451
     15448     15450     15452     15451     15450     15452     15450     15452     15453
     15450     15452     15454     15450     15452     15455     15453     15452     15454
     15453     15452     15455     15454     15452     15455     15452     15455     15456
     15452     15455     15457     15452     15455     15458     15456     15455     15457
     15456     15455     15458     15457     15455     15458     15455     15458     15459
     15455     15458     15460     15455     15458     15461     15459     15458     15460
     15459     15458     15461     15460     15458     15461     15458     15461     15462
     15458     15461     15463     15458     15461     15464     15462     15461     15463
     15462     15461     15464     15463     15461     15464     15461     15464     15465
     15461     15464     15466     15461     15464     15467     15465     15464     15466
     15465     15464     15467     15466     15464     15467     15464     15467     15468
     15464     15467     15469     15464     15467     15470     15468     15467     15469
     15468     15467     15470     15469     15467     15470     15467     15470     15471
     15467     15470     15472     15467     15470     15473     15471     15470     15472
     15471     15470     15473     15472     15470     15473     15470     15473     15474
     15470     15473     15475     15470     15473     15476     15474     15473     15475
     15474     15473     15476     15475     15473     15476     15427     15477     15478
     15427     15477     15479     15427     15477     15480     15478     15477     15479
     15478     15477     15480     15479     15477     15480     15477     15480     15481
     15477     15480     15482     15477     15480     15483     15481     15480     15482
     15481     15480     15483     15482     15480     15483     15480     15483     15484
     15480     15483     15485     15480     15483     15486     15484     15483     15485
     15484     15483     15486     15485     15483     15486     15483     15486     15487
     15483     15486     15488     15483     15486     15489     15487     15486     15488
     15487     15486     15489     15488     15486     15489     15486     15489     15490
     15486     15489     15491     15486     15489     15492     15490     15489     15491
     15490     15489     15492     15491     15489     15492     15489     15492     15493
     15489     15492     15494     15489     15492     15495     15493     15492     15494
     15493     15492     15495     15494     15492     15495     15492     15495     15496
     15492     15495     15497     15492     15495     15498     15496     15495     15497
     15496     15495     15498     15497     15495     15498     15495     15498     15499
     15495     15498     15500     15495     15498     15501     15499     15498     15500
     15499     15498     15501     15500     15498     15501     15498     15501     15502
     15498     15501     15503     15498     15501     15504     15502     15501     15503
     15502     15501     15504     15503     15501     15504     15501     15504     15505
     15501     15504     15506     15501     15504     15507     15505     15504     15506
     15505     15504     15507     15506     15504     15507     15504     15507     15508
     15504     15507     15509     15504     15507     15510     15508     15507     15509
     15508     15507     15510     15509     15507     15510     15507     15510     15511
     15507     15510     15512     15507     15510     15513     15511     15510     15512
     15511     15510     15513     15512     15510     15513     15510     15513     15514
     15510     15513     15515     15510     15513     15516     15514     15513     15515
     15514     15513     15516     15515     15513     15516     15513     15516     15517
     15513     15516     15518     15513     15516     15519     15517     15516     15518
     15517     15516     15519     15518     15516     15519     15521     15520     15522
     15521     15520     15523     15521     15520     15524     15522     15520     15523
     15522     15520     15524     15523     15520     15524     15520     15524     15525
     15520     15524     15526     15520     15524     15529     15525     15524     15526
     15525     15524     15529     15526     15524     15529     15524     15526     15527
     15524     15526     15528     15527     15526     15528     15524     15529     15530
     15524     15529     15531     15524     15529     15535     15530     15529     15531
     15530     15529     15535     15531     15529     15535     15533     15532     15534
     15533     15532     15535     15533     15532     15536     15534     15532     15535
     15534     15532     15536     15535     15532     15536     15529     15535     15532
     15532     15536     15537     15536     15537     15538     15536     15537     15539
     15536     15537     15540     15538     15537     15539     15538     15537     15540
     15539     15537     15540     15537     15540     15541     15537     15540     15542
     15537     15540     15548     15541     15540     15542     15541     15540     15548
     15542     15540     15548     15540     15542     15543     15542     15543     15544
     15542     15543     15545     15544     15543     15545     15543     15545     15546
     15543     15545     15547     15543     15545     15557     15546     15545     15547
     15546     15545     15557     15547     15545     15557     15540     15548     15549
     15540     15548     15550     15540     15548     15551     15549     15548     15550
     15549     15548     15551     15550     15548     15551     15548     15551     15552
     15551     15552     15553     15551     15552     15554     15553     15552     15554
     15552     15554     15555     15552     15554     15556     15552     15554     15604
     15555     15554     15556     15555     15554     15604     15556     15554     15604
     15545     15557     15558     15545     15557     15559     15545     15557     15560
     15558     15557     15559     15558     15557     15560     15559     15557     15560
     15557     15560     15561     15557     15560     15562     15557     15560     15563
     15561     15560     15562     15561     15560     15563     15562     15560     15563
     15560     15563     15564     15560     15563     15565     15560     15563     15566
     15564     15563     15565     15564     15563     15566     15565     15563     15566
     15563     15566     15567     15563     15566     15568     15563     15566     15569
     15567     15566     15568     15567     15566     15569     15568     15566     15569
     15566     15569     15570     15566     15569     15571     15566     15569     15572
     15570     15569     15571     15570     15569     15572     15571     15569     15572
     15569     15572     15573     15569     15572     15574     15569     15572     15575
     15573     15572     15574     15573     15572     15575     15574     15572     15575
     15572     15575     15576     15572     15575     15577     15576     15575     15577
     15575     15577     15578     15575     15577     15579     15578     15577     15579
     15577     15579     15580     15577     15579     15581     15577     15579     15582
     15580     15579     15581     15580     15579     15582     15581     15579     15582
     15579     15582     15583     15579     15582     15584     15579     15582     15585
     15583     15582     15584     15583     15582     15585     15584     15582     15585
     15582     15585     15586     15582     15585     15587     15582     15585     15588
     15586     15585     15587     15586     15585     15588     15587     15585     15588
     15585     15588     15589     15585     15588     15590     15585     15588     15591
     15589     15588     15590     15589     15588     15591     15590     15588     15591
     15588     15591     15592     15588     15591     15593     15588     15591     15594
     15592     15591     15593     15592     15591     15594     15593     15591     15594
     15591     15594     15595     15591     15594     15596     15591     15594     15597
     15595     15594     15596     15595     15594     15597     15596     15594     15597
     15594     15597     15598     15594     15597     15599     15594     15597     15600
     15598     15597     15599     15598     15597     15600     15599     15597     15600
     15597     15600     15601     15597     15600     15602     15597     15600     15603
     15601     15600     15602     15601     15600     15603     15602     15600     15603
     15554     15604     15605     15554     15604     15606     15554     15604     15607
     15605     15604     15606     15605     15604     15607     15606     15604     15607
     15604     15607     15608     15604     15607     15609     15604     15607     15610
     15608     15607     15609     15608     15607     15610     15609     15607     15610
     15607     15610     15611     15607     15610     15612     15607     15610     15613
     15611     15610     15612     15611     15610     15613     15612     15610     15613
     15610     15613     15614     15610     15613     15615     15610     15613     15616
     15614     15613     15615     15614     15613     15616     15615     15613     15616
     15613     15616     15617     15613     15616     15618     15613     15616     15619
     15617     15616     15618     15617     15616     15619     15618     15616     15619
     15616     15619     15620     15616     15619     15621     15616     15619     15622
     15620     15619     15621     15620     15619     15622     15621     15619     15622
     15619     15622     15623     15619     15622     15624     15619     15622     15625
     15623     15622     15624     15623     15622     15625     15624     15622     15625
     15622     15625     15626     15622     15625     15627     15622     15625     15628
     15626     15625     15627     15626     15625     15628     15627     15625     15628
     15625     15628     15629     15625     15628     15630     15625     15628     15631
     15629     15628     15630     15629     15628     15631     15630     15628     15631
     15628     15631     15632     15628     15631     15633     15628     15631     15634
     15632     15631     15633     15632     15631     15634     15633     15631     15634
     15631     15634     15635     15631     15634     15636     15631     15634     15637
     15635     15634     15636     15635     15634     15637     15636     15634     15637
     15634     15637     15638     15634     15637     15639     15634     15637     15640
     15638     15637     15639     15638     15637     15640     15639     15637     15640
     15637     15640     15641     15637     15640     15642     15637     15640     15643
     15641     15640     15642     15641     15640     15643     15642     15640     15643
     15640     15643     15644     15640     15643     15645     15640     15643     15646
     15644     15643     15645     15644     15643     15646     15645     15643     15646
     15648     15647     15649     15648     15647     15650     15648     15647     15651
     15649     15647     15650     15649     15647     15651     15650     15647     15651
     15647     15651     15652     15647     15651     15653     15647     15651     15656
     15652     15651     15653     15652     15651     15656     15653     15651     15656
     15651     15653     15654     15651     15653     15655     15654     15653     15655
     15651     15656     15657     15651     15656     15658     15651     15656     15662
     15657     15656     15658     15657     15656     15662     15658     15656     15662
     15660     15659     15661     15660     15659     15662     15660     15659     15663
     15661     15659     15662     15661     15659     15663     15662     15659     15663
     15656     15662     15659     15659     15663     15664     15663     15664     15665
     15663     15664     15666     15663     15664     15667     15665     15664     15666
     15665     15664     15667     15666     15664     15667     15664     15667     15668
     15664     15667     15669     15664     15667     15675     15668     15667     15669
     15668     15667     15675     15669     15667     15675     15667     15669     15670
     15669     15670     15671     15669     15670     15672     15671     15670     15672
     15670     15672     15673     15670     15672     15674     15670     15672     15684
     15673     15672     15674     15673     15672     15684     15674     15672     15684
     15667     15675     15676     15667     15675     15677     15667     15675     15678
     15676     15675     15677     15676     15675     15678     15677     15675     15678
     15675     15678     15679     15678     15679     15680     15678     15679     15681
     15680     15679     15681     15679     15681     15682     15679     15681     15683
     15679     15681     15731     15682     15681     15683     15682     15681     15731
     15683     15681     15731     15672     15684     15685     15672     15684     15686
     15672     15684     15687     15685     15684     15686     15685     15684     15687
     15686     15684     15687     15684     15687     15688     15684     15687     15689
     15684     15687     15690     15688     15687     15689     15688     15687     15690
     15689     15687     15690     15687     15690     15691     15687     15690     15692
     15687     15690     15693     15691     15690     15692     15691     15690     15693
     15692     15690     15693     15690     15693     15694     15690     15693     15695
     15690     15693     15696     15694     15693     15695     15694     15693     15696
     15695     15693     15696     15693     15696     15697     15693     15696     15698
     15693     15696     15699     15697     15696     15698     15697     15696     15699
     15698     15696     15699     15696     15699     15700     15696     15699     15701
     15696     15699     15702     15700     15699     15701     15700     15699     15702
     15701     15699     15702     15699     15702     15703     15699     15702     15704
     15703     15702     15704     15702     15704     15705     15702     15704     15706
     15705     15704     15706     15704     15706     15707     15704     15706     15708
     15704     15706     15709     15707     15706     15708     15707     15706     15709
     15708     15706     15709     15706     15709     15710     15706     15709     15711
     15706     15709     15712     15710     15709     15711     15710     15709     15712
     15711     15709     15712     15709     15712     15713     15709     15712     15714
     15709     15712     15715     15713     15712     15714     15713     15712     15715
     15714     15712     15715     15712     15715     15716     15712     15715     15717
     15712     15715     15718     15716     15715     15717     15716     15715     15718
     15717     15715     15718     15715     15718     15719     15715     15718     15720
     15715     15718     15721     15719     15718     15720     15719     15718     15721
     15720     15718     15721     15718     15721     15722     15718     15721     15723
     15718     15721     15724     15722     15721     15723     15722     15721     15724
     15723     15721     15724     15721     15724     15725     15721     15724     15726
     15721     15724     15727     15725     15724     15726     15725     15724     15727
     15726     15724     15727     15724     15727     15728     15724     15727     15729
     15724     15727     15730     15728     15727     15729     15728     15727     15730
     15729     15727     15730     15681     15731     15732     15681     15731     15733
     15681     15731     15734     15732     15731     15733     15732     15731     15734
     15733     15731     15734     15731     15734     15735     15731     15734     15736
     15731     15734     15737     15735     15734     15736     15735     15734     15737
     15736     15734     15737     15734     15737     15738     15734     15737     15739
     15734     15737     15740     15738     15737     15739     15738     15737     15740
     15739     15737     15740     15737     15740     15741     15737     15740     15742
     15737     15740     15743     15741     15740     15742     15741     15740     15743
     15742     15740     15743     15740     15743     15744     15740     15743     15745
     15740     15743     15746     15744     15743     15745     15744     15743     15746
     15745     15743     15746     15743     15746     15747     15743     15746     15748
     15743     15746     15749     15747     15746     15748     15747     15746     15749
     15748     15746     15749     15746     15749     15750     15746     15749     15751
     15746     15749     15752     15750     15749     15751     15750     15749     15752
     15751     15749     15752     15749     15752     15753     15749     15752     15754
     15749     15752     15755     15753     15752     15754     15753     15752     15755
     15754     15752     15755     15752     15755     15756     15752     15755     15757
     15752     15755     15758     15756     15755     15757     15756     15755     15758
     15757     15755     15758     15755     15758     15759     15755     15758     15760
     15755     15758     15761     15759     15758     15760     15759     15758     15761
     15760     15758     15761     15758     15761     15762     15758     15761     15763
     15758     15761     15764     15762     15761     15763     15762     15761     15764
     15763     15761     15764     15761     15764     15765     15761     15764     15766
     15761     15764     15767     15765     15764     15766     15765     15764     15767
     15766     15764     15767     15764     15767     15768     15764     15767     15769
     15764     15767     15770     15768     15767     15769     15768     15767     15770
     15769     15767     15770     15767     15770     15771     15767     15770     15772
     15767     15770     15773     15771     15770     15772     15771     15770     15773
     15772     15770     15773     15775     15774     15778     15775     15774     15782
     15775     15774     15786     15778     15774     15782     15778     15774     15786
     15782     15774     15786     15774     15775     15776     15774     15775     15777
     15774     15775     15790     15776     15775     15777     15776     15775     15790
     15777     15775     15790     15774     15778     15779     15774     15778     15780
     15774     15778     15781     15779     15778     15780     15779     15778     15781
     15780     15778     15781     15774     15782     15783     15774     15782     15784
     15774     15782     15785     15783     15782     15784     15783     15782     15785
     15784     15782     15785     15774     15786     15787     15774     15786     15788
     15774     15786     15789     15787     15786     15788     15787     15786     15789
     15788     15786     15789     15775     15790     15791     15775     15790     15792
     15775     15790     15796     15791     15790     15792     15791     15790     15796
     15792     15790     15796     15794     15793     15795     15794     15793     15796
     15794     15793     15797     15795     15793     15796     15795     15793     15797
     15796     15793     15797     15790     15796     15793     15793     15797     15798
     15797     15798     15799     15797     15798     15800     15797     15798     15801
     15799     15798     15800     15799     15798     15801     15800     15798     15801
     15798     15801     15802     15798     15801     15803     15798     15801     15809
     15802     15801     15803     15802     15801     15809     15803     15801     15809
     15801     15803     15804     15803     15804     15805     15803     15804     15806
     15805     15804     15806     15804     15806     15807     15804     15806     15808
     15804     15806     15818     15807     15806     15808     15807     15806     15818
     15808     15806     15818     15801     15809     15810     15801     15809     15811
     15801     15809     15812     15810     15809     15811     15810     15809     15812
     15811     15809     15812     15809     15812     15813     15812     15813     15814
     15812     15813     15815     15814     15813     15815     15813     15815     15816
     15813     15815     15817     15813     15815     15865     15816     15815     15817
     15816     15815     15865     15817     15815     15865     15806     15818     15819
     15806     15818     15820     15806     15818     15821     15819     15818     15820
     15819     15818     15821     15820     15818     15821     15818     15821     15822
     15818     15821     15823     15818     15821     15824     15822     15821     15823
     15822     15821     15824     15823     15821     15824     15821     15824     15825
     15821     15824     15826     15821     15824     15827     15825     15824     15826
     15825     15824     15827     15826     15824     15827     15824     15827     15828
     15824     15827     15829     15824     15827     15830     15828     15827     15829
     15828     15827     15830     15829     15827     15830     15827     15830     15831
     15827     15830     15832     15827     15830     15833     15831     15830     15832
     15831     15830     15833     15832     15830     15833     15830     15833     15834
     15830     15833     15835     15830     15833     15836     15834     15833     15835
     15834     15833     15836     15835     15833     15836     15833     15836     15837
     15833     15836     15838     15837     15836     15838     15836     15838     15839
     15836     15838     15840     15839     15838     15840     15838     15840     15841
     15838     15840     15842     15838     15840     15843     15841     15840     15842
     15841     15840     15843     15842     15840     15843     15840     15843     15844
     15840     15843     15845     15840     15843     15846     15844     15843     15845
     15844     15843     15846     15845     15843     15846     15843     15846     15847
     15843     15846     15848     15843     15846     15849     15847     15846     15848
     15847     15846     15849     15848     15846     15849     15846     15849     15850
     15846     15849     15851     15846     15849     15852     15850     15849     15851
     15850     15849     15852     15851     15849     15852     15849     15852     15853
     15849     15852     15854     15849     15852     15855     15853     15852     15854
     15853     15852     15855     15854     15852     15855     15852     15855     15856
     15852     15855     15857     15852     15855     15858     15856     15855     15857
     15856     15855     15858     15857     15855     15858     15855     15858     15859
     15855     15858     15860     15855     15858     15861     15859     15858     15860
     15859     15858     15861     15860     15858     15861     15858     15861     15862
     15858     15861     15863     15858     15861     15864     15862     15861     15863
     15862     15861     15864     15863     15861     15864     15815     15865     15866
     15815     15865     15867     15815     15865     15868     15866     15865     15867
     15866     15865     15868     15867     15865     15868     15865     15868     15869
     15865     15868     15870     15865     15868     15871     15869     15868     15870
     15869     15868     15871     15870     15868     15871     15868     15871     15872
     15868     15871     15873     15868     15871     15874     15872     15871     15873
     15872     15871     15874     15873     15871     15874     15871     15874     15875
     15871     15874     15876     15871     15874     15877     15875     15874     15876
     15875     15874     15877     15876     15874     15877     15874     15877     15878
     15874     15877     15879     15874     15877     15880     15878     15877     15879
     15878     15877     15880     15879     15877     15880     15877     15880     15881
     15877     15880     15882     15877     15880     15883     15881     15880     15882
     15881     15880     15883     15882     15880     15883     15880     15883     15884
     15880     15883     15885     15880     15883     15886     15884     15883     15885
     15884     15883     15886     15885     15883     15886     15883     15886     15887
     15883     15886     15888     15883     15886     15889     15887     15886     15888
     15887     15886     15889     15888     15886     15889     15886     15889     15890
     15886     15889     15891     15886     15889     15892     15890     15889     15891
     15890     15889     15892     15891     15889     15892     15889     15892     15893
     15889     15892     15894     15889     15892     15895     15893     15892     15894
     15893     15892     15895     15894     15892     15895     15892     15895     15896
     15892     15895     15897     15892     15895     15898     15896     15895     15897
     15896     15895     15898     15897     15895     15898     15895     15898     15899
     15895     15898     15900     15895     15898     15901     15899     15898     15900
     15899     15898     15901     15900     15898     15901     15898     15901     15902
     15898     15901     15903     15898     15901     15904     15902     15901     15903
     15902     15901     15904     15903     15901     15904     15901     15904     15905
     15901     15904     15906     15901     15904     15907     15905     15904     15906
     15905     15904     15907     15906     15904     15907     15909     15908     15910
     15909     15908     15911     15909     15908     15912     15910     15908     15911
     15910     15908     15912     15911     15908     15912     15908     15912     15913
     15908     15912     15914     15908     15912     15917     15913     15912     15914
     15913     15912     15917     15914     15912     15917     15912     15914     15915
     15912     15914     15916     15915     15914     15916     15912     15917     15918
     15912     15917     15919     15912     15917     15923     15918     15917     15919
     15918     15917     15923     15919     15917     15923     15921     15920     15922
     15921     15920     15923     15921     15920     15924     15922     15920     15923
     15922     15920     15924     15923     15920     15924     15917     15923     15920
     15920     15924     15925     15924     15925     15926     15924     15925     15927
     15924     15925     15928     15926     15925     15927     15926     15925     15928
     15927     15925     15928     15925     15928     15929     15925     15928     15930
     15925     15928     15936     15929     15928     15930     15929     15928     15936
     15930     15928     15936     15928     15930     15931     15930     15931     15932
     15930     15931     15933     15932     15931     15933     15931     15933     15934
     15931     15933     15935     15931     15933     15945     15934     15933     15935
     15934     15933     15945     15935     15933     15945     15928     15936     15937
     15928     15936     15938     15928     15936     15939     15937     15936     15938
     15937     15936     15939     15938     15936     15939     15936     15939     15940
     15939     15940     15941     15939     15940     15942     15941     15940     15942
     15940     15942     15943     15940     15942     15944     15940     15942     15992
     15943     15942     15944     15943     15942     15992     15944     15942     15992
     15933     15945     15946     15933     15945     15947     15933     15945     15948
     15946     15945     15947     15946     15945     15948     15947     15945     15948
     15945     15948     15949     15945     15948     15950     15945     15948     15951
     15949     15948     15950     15949     15948     15951     15950     15948     15951
     15948     15951     15952     15948     15951     15953     15948     15951     15954
     15952     15951     15953     15952     15951     15954     15953     15951     15954
     15951     15954     15955     15951     15954     15956     15951     15954     15957
     15955     15954     15956     15955     15954     15957     15956     15954     15957
     15954     15957     15958     15954     15957     15959     15954     15957     15960
     15958     15957     15959     15958     15957     15960     15959     15957     15960
     15957     15960     15961     15957     15960     15962     15957     15960     15963
     15961     15960     15962     15961     15960     15963     15962     15960     15963
     15960     15963     15964     15960     15963     15965     15964     15963     15965
     15963     15965     15966     15963     15965     15967     15966     15965     15967
     15965     15967     15968     15965     15967     15969     15965     15967     15970
     15968     15967     15969     15968     15967     15970     15969     15967     15970
     15967     15970     15971     15967     15970     15972     15967     15970     15973
     15971     15970     15972     15971     15970     15973     15972     15970     15973
     15970     15973     15974     15970     15973     15975     15970     15973     15976
     15974     15973     15975     15974     15973     15976     15975     15973     15976
     15973     15976     15977     15973     15976     15978     15973     15976     15979
     15977     15976     15978     15977     15976     15979     15978     15976     15979
     15976     15979     15980     15976     15979     15981     15976     15979     15982
     15980     15979     15981     15980     15979     15982     15981     15979     15982
     15979     15982     15983     15979     15982     15984     15979     15982     15985
     15983     15982     15984     15983     15982     15985     15984     15982     15985
     15982     15985     15986     15982     15985     15987     15982     15985     15988
     15986     15985     15987     15986     15985     15988     15987     15985     15988
     15985     15988     15989     15985     15988     15990     15985     15988     15991
     15989     15988     15990     15989     15988     15991     15990     15988     15991
     15942     15992     15993     15942     15992     15994     15942     15992     15995
     15993     15992     15994     15993     15992     15995     15994     15992     15995
     15992     15995     15996     15992     15995     15997     15992     15995     15998
     15996     15995     15997     15996     15995     15998     15997     15995     15998
     15995     15998     15999     15995     15998     16000     15995     15998     16001
     15999     15998     16000     15999     15998     16001     16000     15998     16001
     15998     16001     16002     15998     16001     16003     15998     16001     16004
     16002     16001     16003     16002     16001     16004     16003     16001     16004
     16001     16004     16005     16001     16004     16006     16001     16004     16007
     16005     16004     16006     16005     16004     16007     16006     16004     16007
     16004     16007     16008     16004     16007     16009     16004     16007     16010
     16008     16007     16009     16008     16007     16010     16009     16007     16010
     16007     16010     16011     16007     16010     16012     16007     16010     16013
     16011     16010     16012     16011     16010     16013     16012     16010     16013
     16010     16013     16014     16010     16013     16015     16010     16013     16016
     16014     16013     16015     16014     16013     16016     16015     16013     16016
     16013     16016     16017     16013     16016     16018     16013     16016     16019
     16017     16016     16018     16017     16016     16019     16018     16016     16019
     16016     16019     16020     16016     16019     16021     16016     16019     16022
     16020     16019     16021     16020     16019     16022     16021     16019     16022
     16019     16022     16023     16019     16022     16024     16019     16022     16025
     16023     16022     16024     16023     16022     16025     16024     16022     16025
     16022     16025     16026     16022     16025     16027     16022     16025     16028
     16026     16025     16027     16026     16025     16028     16027     16025     16028
     16025     16028     16029     16025     16028     16030     16025     16028     16031
     16029     16028     16030     16029     16028     16031     16030     16028     16031
     16028     16031     16032     16028     16031     16033     16028     16031     16034
     16032     16031     16033     16032     16031     16034     16033     16031     16034
     16036     16035     16039     16036     16035     16043     16036     16035     16047
     16039     16035     16043     16039     16035     16047     16043     16035     16047
     16035     16036     16037     16035     16036     16038     16035     16036     16051
     16037     16036     16038     16037     16036     16051     16038     16036     16051
     16035     16039     16040     16035     16039     16041     16035     16039     16042
     16040     16039     16041     16040     16039     16042     16041     16039     16042
     16035     16043     16044     16035     16043     16045     16035     16043     16046
     16044     16043     16045     16044     16043     16046     16045     16043     16046
     16035     16047     16048     16035     16047     16049     16035     16047     16050
     16048     16047     16049     16048     16047     16050     16049     16047     16050
     16036     16051     16052     16036     16051     16053     16036     16051     16057
     16052     16051     16053     16052     16051     16057     16053     16051     16057
     16055     16054     16056     16055     16054     16057     16055     16054     16058
     16056     16054     16057     16056     16054     16058     16057     16054     16058
     16051     16057     16054     16054     16058     16059     16058     16059     16060
     16058     16059     16061     16058     16059     16062     16060     16059     16061
     16060     16059     16062     16061     16059     16062     16059     16062     16063
     16059     16062     16064     16059     16062     16070     16063     16062     16064
     16063     16062     16070     16064     16062     16070     16062     16064     16065
     16064     16065     16066     16064     16065     16067     16066     16065     16067
     16065     16067     16068     16065     16067     16069     16065     16067     16079
     16068     16067     16069     16068     16067     16079     16069     16067     16079
     16062     16070     16071     16062     16070     16072     16062     16070     16073
     16071     16070     16072     16071     16070     16073     16072     16070     16073
     16070     16073     16074     16073     16074     16075     16073     16074     16076
     16075     16074     16076     16074     16076     16077     16074     16076     16078
     16074     16076     16126     16077     16076     16078     16077     16076     16126
     16078     16076     16126     16067     16079     16080     16067     16079     16081
     16067     16079     16082     16080     16079     16081     16080     16079     16082
     16081     16079     16082     16079     16082     16083     16079     16082     16084
     16079     16082     16085     16083     16082     16084     16083     16082     16085
     16084     16082     16085     16082     16085     16086     16082     16085     16087
     16082     16085     16088     16086     16085     16087     16086     16085     16088
     16087     16085     16088     16085     16088     16089     16085     16088     16090
     16085     16088     16091     16089     16088     16090     16089     16088     16091
     16090     16088     16091     16088     16091     16092     16088     16091     16093
     16088     16091     16094     16092     16091     16093     16092     16091     16094
     16093     16091     16094     16091     16094     16095     16091     16094     16096
     16091     16094     16097     16095     16094     16096     16095     16094     16097
     16096     16094     16097     16094     16097     16098     16094     16097     16099
     16098     16097     16099     16097     16099     16100     16097     16099     16101
     16100     16099     16101     16099     16101     16102     16099     16101     16103
     16099     16101     16104     16102     16101     16103     16102     16101     16104
     16103     16101     16104     16101     16104     16105     16101     16104     16106
     16101     16104     16107     16105     16104     16106     16105     16104     16107
     16106     16104     16107     16104     16107     16108     16104     16107     16109
     16104     16107     16110     16108     16107     16109     16108     16107     16110
     16109     16107     16110     16107     16110     16111     16107     16110     16112
     16107     16110     16113     16111     16110     16112     16111     16110     16113
     16112     16110     16113     16110     16113     16114     16110     16113     16115
     16110     16113     16116     16114     16113     16115     16114     16113     16116
     16115     16113     16116     16113     16116     16117     16113     16116     16118
     16113     16116     16119     16117     16116     16118     16117     16116     16119
     16118     16116     16119     16116     16119     16120     16116     16119     16121
     16116     16119     16122     16120     16119     16121     16120     16119     16122
     16121     16119     16122     16119     16122     16123     16119     16122     16124
     16119     16122     16125     16123     16122     16124     16123     16122     16125
     16124     16122     16125     16076     16126     16127     16076     16126     16128
     16076     16126     16129     16127     16126     16128     16127     16126     16129
     16128     16126     16129     16126     16129     16130     16126     16129     16131
     16126     16129     16132     16130     16129     16131     16130     16129     16132
     16131     16129     16132     16129     16132     16133     16129     16132     16134
     16129     16132     16135     16133     16132     16134     16133     16132     16135
     16134     16132     16135     16132     16135     16136     16132     16135     16137
     16132     16135     16138     16136     16135     16137     16136     16135     16138
     16137     16135     16138     16135     16138     16139     16135     16138     16140
     16135     16138     16141     16139     16138     16140     16139     16138     16141
     16140     16138     16141     16138     16141     16142     16138     16141     16143
     16138     16141     16144     16142     16141     16143     16142     16141     16144
     16143     16141     16144     16141     16144     16145     16141     16144     16146
     16141     16144     16147     16145     16144     16146     16145     16144     16147
     16146     16144     16147     16144     16147     16148     16144     16147     16149
     16144     16147     16150     16148     16147     16149     16148     16147     16150
     16149     16147     16150     16147     16150     16151     16147     16150     16152
     16147     16150     16153     16151     16150     16152     16151     16150     16153
     16152     16150     16153     16150     16153     16154     16150     16153     16155
     16150     16153     16156     16154     16153     16155     16154     16153     16156
     16155     16153     16156     16153     16156     16157     16153     16156     16158
     16153     16156     16159     16157     16156     16158     16157     16156     16159
     16158     16156     16159     16156     16159     16160     16156     16159     16161
     16156     16159     16162     16160     16159     16161     16160     16159     16162
     16161     16159     16162     16159     16162     16163     16159     16162     16164
     16159     16162     16165     16163     16162     16164     16163     16162     16165
     16164     16162     16165     16162     16165     16166     16162     16165     16167
     16162     16165     16168     16166     16165     16167     16166     16165     16168
     16167     16165     16168     16170     16169     16173     16170     16169     16177
     16170     16169     16181     16173     16169     16177     16173     16169     16181
     16177     16169     16181     16169     16170     16171     16169     16170     16172
     16169     16170     16185     16171     16170     16172     16171     16170     16185
     16172     16170     16185     16169     16173     16174     16169     16173     16175
     16169     16173     16176     16174     16173     16175     16174     16173     16176
     16175     16173     16176     16169     16177     16178     16169     16177     16179
     16169     16177     16180     16178     16177     16179     16178     16177     16180
     16179     16177     16180     16169     16181     16182     16169     16181     16183
     16169     16181     16184     16182     16181     16183     16182     16181     16184
     16183     16181     16184     16170     16185     16186     16170     16185     16187
     16170     16185     16191     16186     16185     16187     16186     16185     16191
     16187     16185     16191     16189     16188     16190     16189     16188     16191
     16189     16188     16192     16190     16188     16191     16190     16188     16192
     16191     16188     16192     16185     16191     16188     16188     16192     16193
     16192     16193     16194     16192     16193     16195     16192     16193     16196
     16194     16193     16195     16194     16193     16196     16195     16193     16196
     16193     16196     16197     16193     16196     16198     16193     16196     16204
     16197     16196     16198     16197     16196     16204     16198     16196     16204
     16196     16198     16199     16198     16199     16200     16198     16199     16201
     16200     16199     16201     16199     16201     16202     16199     16201     16203
     16199     16201     16213     16202     16201     16203     16202     16201     16213
     16203     16201     16213     16196     16204     16205     16196     16204     16206
     16196     16204     16207     16205     16204     16206     16205     16204     16207
     16206     16204     16207     16204     16207     16208     16207     16208     16209
     16207     16208     16210     16209     16208     16210     16208     16210     16211
     16208     16210     16212     16208     16210     16260     16211     16210     16212
     16211     16210     16260     16212     16210     16260     16201     16213     16214
     16201     16213     16215     16201     16213     16216     16214     16213     16215
     16214     16213     16216     16215     16213     16216     16213     16216     16217
     16213     16216     16218     16213     16216     16219     16217     16216     16218
     16217     16216     16219     16218     16216     16219     16216     16219     16220
     16216     16219     16221     16216     16219     16222     16220     16219     16221
     16220     16219     16222     16221     16219     16222     16219     16222     16223
     16219     16222     16224     16219     16222     16225     16223     16222     16224
     16223     16222     16225     16224     16222     16225     16222     16225     16226
     16222     16225     16227     16222     16225     16228     16226     16225     16227
     16226     16225     16228     16227     16225     16228     16225     16228     16229
     16225     16228     16230     16225     16228     16231     16229     16228     16230
     16229     16228     16231     16230     16228     16231     16228     16231     16232
     16228     16231     16233     16232     16231     16233     16231     16233     16234
     16231     16233     16235     16234     16233     16235     16233     16235     16236
     16233     16235     16237     16233     16235     16238     16236     16235     16237
     16236     16235     16238     16237     16235     16238     16235     16238     16239
     16235     16238     16240     16235     16238     16241     16239     16238     16240
     16239     16238     16241     16240     16238     16241     16238     16241     16242
     16238     16241     16243     16238     16241     16244     16242     16241     16243
     16242     16241     16244     16243     16241     16244     16241     16244     16245
     16241     16244     16246     16241     16244     16247     16245     16244     16246
     16245     16244     16247     16246     16244     16247     16244     16247     16248
     16244     16247     16249     16244     16247     16250     16248     16247     16249
     16248     16247     16250     16249     16247     16250     16247     16250     16251
     16247     16250     16252     16247     16250     16253     16251     16250     16252
     16251     16250     16253     16252     16250     16253     16250     16253     16254
     16250     16253     16255     16250     16253     16256     16254     16253     16255
     16254     16253     16256     16255     16253     16256     16253     16256     16257
     16253     16256     16258     16253     16256     16259     16257     16256     16258
     16257     16256     16259     16258     16256     16259     16210     16260     16261
     16210     16260     16262     16210     16260     16263     16261     16260     16262
     16261     16260     16263     16262     16260     16263     16260     16263     16264
     16260     16263     16265     16260     16263     16266     16264     16263     16265
     16264     16263     16266     16265     16263     16266     16263     16266     16267
     16263     16266     16268     16263     16266     16269     16267     16266     16268
     16267     16266     16269     16268     16266     16269     16266     16269     16270
     16266     16269     16271     16266     16269     16272     16270     16269     16271
     16270     16269     16272     16271     16269     16272     16269     16272     16273
     16269     16272     16274     16269     16272     16275     16273     16272     16274
     16273     16272     16275     16274     16272     16275     16272     16275     16276
     16272     16275     16277     16272     16275     16278     16276     16275     16277
     16276     16275     16278     16277     16275     16278     16275     16278     16279
     16275     16278     16280     16275     16278     16281     16279     16278     16280
     16279     16278     16281     16280     16278     16281     16278     16281     16282
     16278     16281     16283     16278     16281     16284     16282     16281     16283
     16282     16281     16284     16283     16281     16284     16281     16284     16285
     16281     16284     16286     16281     16284     16287     16285     16284     16286
     16285     16284     16287     16286     16284     16287     16284     16287     16288
     16284     16287     16289     16284     16287     16290     16288     16287     16289
     16288     16287     16290     16289     16287     16290     16287     16290     16291
     16287     16290     16292     16287     16290     16293     16291     16290     16292
     16291     16290     16293     16292     16290     16293     16290     16293     16294
     16290     16293     16295     16290     16293     16296     16294     16293     16295
     16294     16293     16296     16295     16293     16296     16293     16296     16297
     16293     16296     16298     16293     16296     16299     16297     16296     16298
     16297     16296     16299     16298     16296     16299     16296     16299     16300
     16296     16299     16301     16296     16299     16302     16300     16299     16301
     16300     16299     16302     16301     16299     16302     16304     16303     16307
     16304     16303     16311     16304     16303     16315     16307     16303     16311
     16307     16303     16315     16311     16303     16315     16303     16304     16305
     16303     16304     16306     16303     16304     16319     16305     16304     16306
     16305     16304     16319     16306     16304     16319     16303     16307     16308
     16303     16307     16309     16303     16307     16310     16308     16307     16309
     16308     16307     16310     16309     16307     16310     16303     16311     16312
     16303     16311     16313     16303     16311     16314     16312     16311     16313
     16312     16311     16314     16313     16311     16314     16303     16315     16316
     16303     16315     16317     16303     16315     16318     16316     16315     16317
     16316     16315     16318     16317     16315     16318     16304     16319     16320
     16304     16319     16321     16304     16319     16325     16320     16319     16321
     16320     16319     16325     16321     16319     16325     16323     16322     16324
     16323     16322     16325     16323     16322     16326     16324     16322     16325
     16324     16322     16326     16325     16322     16326     16319     16325     16322
     16322     16326     16327     16326     16327     16328     16326     16327     16329
     16326     16327     16330     16328     16327     16329     16328     16327     16330
     16329     16327     16330     16327     16330     16331     16327     16330     16332
     16327     16330     16338     16331     16330     16332     16331     16330     16338
     16332     16330     16338     16330     16332     16333     16332     16333     16334
     16332     16333     16335     16334     16333     16335     16333     16335     16336
     16333     16335     16337     16333     16335     16347     16336     16335     16337
     16336     16335     16347     16337     16335     16347     16330     16338     16339
     16330     16338     16340     16330     16338     16341     16339     16338     16340
     16339     16338     16341     16340     16338     16341     16338     16341     16342
     16341     16342     16343     16341     16342     16344     16343     16342     16344
     16342     16344     16345     16342     16344     16346     16342     16344     16394
     16345     16344     16346     16345     16344     16394     16346     16344     16394
     16335     16347     16348     16335     16347     16349     16335     16347     16350
     16348     16347     16349     16348     16347     16350     16349     16347     16350
     16347     16350     16351     16347     16350     16352     16347     16350     16353
     16351     16350     16352     16351     16350     16353     16352     16350     16353
     16350     16353     16354     16350     16353     16355     16350     16353     16356
     16354     16353     16355     16354     16353     16356     16355     16353     16356
     16353     16356     16357     16353     16356     16358     16353     16356     16359
     16357     16356     16358     16357     16356     16359     16358     16356     16359
     16356     16359     16360     16356     16359     16361     16356     16359     16362
     16360     16359     16361     16360     16359     16362     16361     16359     16362
     16359     16362     16363     16359     16362     16364     16359     16362     16365
     16363     16362     16364     16363     16362     16365     16364     16362     16365
     16362     16365     16366     16362     16365     16367     16366     16365     16367
     16365     16367     16368     16365     16367     16369     16368     16367     16369
     16367     16369     16370     16367     16369     16371     16367     16369     16372
     16370     16369     16371     16370     16369     16372     16371     16369     16372
     16369     16372     16373     16369     16372     16374     16369     16372     16375
     16373     16372     16374     16373     16372     16375     16374     16372     16375
     16372     16375     16376     16372     16375     16377     16372     16375     16378
     16376     16375     16377     16376     16375     16378     16377     16375     16378
     16375     16378     16379     16375     16378     16380     16375     16378     16381
     16379     16378     16380     16379     16378     16381     16380     16378     16381
     16378     16381     16382     16378     16381     16383     16378     16381     16384
     16382     16381     16383     16382     16381     16384     16383     16381     16384
     16381     16384     16385     16381     16384     16386     16381     16384     16387
     16385     16384     16386     16385     16384     16387     16386     16384     16387
     16384     16387     16388     16384     16387     16389     16384     16387     16390
     16388     16387     16389     16388     16387     16390     16389     16387     16390
     16387     16390     16391     16387     16390     16392     16387     16390     16393
     16391     16390     16392     16391     16390     16393     16392     16390     16393
     16344     16394     16395     16344     16394     16396     16344     16394     16397
     16395     16394     16396     16395     16394     16397     16396     16394     16397
     16394     16397     16398     16394     16397     16399     16394     16397     16400
     16398     16397     16399     16398     16397     16400     16399     16397     16400
     16397     16400     16401     16397     16400     16402     16397     16400     16403
     16401     16400     16402     16401     16400     16403     16402     16400     16403
     16400     16403     16404     16400     16403     16405     16400     16403     16406
     16404     16403     16405     16404     16403     16406     16405     16403     16406
     16403     16406     16407     16403     16406     16408     16403     16406     16409
     16407     16406     16408     16407     16406     16409     16408     16406     16409
     16406     16409     16410     16406     16409     16411     16406     16409     16412
     16410     16409     16411     16410     16409     16412     16411     16409     16412
     16409     16412     16413     16409     16412     16414     16409     16412     16415
     16413     16412     16414     16413     16412     16415     16414     16412     16415
     16412     16415     16416     16412     16415     16417     16412     16415     16418
     16416     16415     16417     16416     16415     16418     16417     16415     16418
     16415     16418     16419     16415     16418     16420     16415     16418     16421
     16419     16418     16420     16419     16418     16421     16420     16418     16421
     16418     16421     16422     16418     16421     16423     16418     16421     16424
     16422     16421     16423     16422     16421     16424     16423     16421     16424
     16421     16424     16425     16421     16424     16426     16421     16424     16427
     16425     16424     16426     16425     16424     16427     16426     16424     16427
     16424     16427     16428     16424     16427     16429     16424     16427     16430
     16428     16427     16429     16428     16427     16430     16429     16427     16430
     16427     16430     16431     16427     16430     16432     16427     16430     16433
     16431     16430     16432     16431     16430     16433     16432     16430     16433
     16430     16433     16434     16430     16433     16435     16430     16433     16436
     16434     16433     16435     16434     16433     16436     16435     16433     16436
     16438     16437     16441     16438     16437     16445     16438     16437     16449
     16441     16437     16445     16441     16437     16449     16445     16437     16449
     16437     16438     16439     16437     16438     16440     16437     16438     16453
     16439     16438     16440     16439     16438     16453     16440     16438     16453
     16437     16441     16442     16437     16441     16443     16437     16441     16444
     16442     16441     16443     16442     16441     16444     16443     16441     16444
     16437     16445     16446     16437     16445     16447     16437     16445     16448
     16446     16445     16447     16446     16445     16448     16447     16445     16448
     16437     16449     16450     16437     16449     16451     16437     16449     16452
     16450     16449     16451     16450     16449     16452     16451     16449     16452
     16438     16453     16454     16438     16453     16455     16438     16453     16459
     16454     16453     16455     16454     16453     16459     16455     16453     16459
     16457     16456     16458     16457     16456     16459     16457     16456     16460
     16458     16456     16459     16458     16456     16460     16459     16456     16460
     16453     16459     16456     16456     16460     16461     16460     16461     16462
     16460     16461     16463     16460     16461     16464     16462     16461     16463
     16462     16461     16464     16463     16461     16464     16461     16464     16465
     16461     16464     16466     16461     16464     16472     16465     16464     16466
     16465     16464     16472     16466     16464     16472     16464     16466     16467
     16466     16467     16468     16466     16467     16469     16468     16467     16469
     16467     16469     16470     16467     16469     16471     16467     16469     16481
     16470     16469     16471     16470     16469     16481     16471     16469     16481
     16464     16472     16473     16464     16472     16474     16464     16472     16475
     16473     16472     16474     16473     16472     16475     16474     16472     16475
     16472     16475     16476     16475     16476     16477     16475     16476     16478
     16477     16476     16478     16476     16478     16479     16476     16478     16480
     16476     16478     16528     16479     16478     16480     16479     16478     16528
     16480     16478     16528     16469     16481     16482     16469     16481     16483
     16469     16481     16484     16482     16481     16483     16482     16481     16484
     16483     16481     16484     16481     16484     16485     16481     16484     16486
     16481     16484     16487     16485     16484     16486     16485     16484     16487
     16486     16484     16487     16484     16487     16488     16484     16487     16489
     16484     16487     16490     16488     16487     16489     16488     16487     16490
     16489     16487     16490     16487     16490     16491     16487     16490     16492
     16487     16490     16493     16491     16490     16492     16491     16490     16493
     16492     16490     16493     16490     16493     16494     16490     16493     16495
     16490     16493     16496     16494     16493     16495     16494     16493     16496
     16495     16493     16496     16493     16496     16497     16493     16496     16498
     16493     16496     16499     16497     16496     16498     16497     16496     16499
     16498     16496     16499     16496     16499     16500     16496     16499     16501
     16500     16499     16501     16499     16501     16502     16499     16501     16503
     16502     16501     16503     16501     16503     16504     16501     16503     16505
     16501     16503     16506     16504     16503     16505     16504     16503     16506
     16505     16503     16506     16503     16506     16507     16503     16506     16508
     16503     16506     16509     16507     16506     16508     16507     16506     16509
     16508     16506     16509     16506     16509     16510     16506     16509     16511
     16506     16509     16512     16510     16509     16511     16510     16509     16512
     16511     16509     16512     16509     16512     16513     16509     16512     16514
     16509     16512     16515     16513     16512     16514     16513     16512     16515
     16514     16512     16515     16512     16515     16516     16512     16515     16517
     16512     16515     16518     16516     16515     16517     16516     16515     16518
     16517     16515     16518     16515     16518     16519     16515     16518     16520
     16515     16518     16521     16519     16518     16520     16519     16518     16521
     16520     16518     16521     16518     16521     16522     16518     16521     16523
     16518     16521     16524     16522     16521     16523     16522     16521     16524
     16523     16521     16524     16521     16524     16525     16521     16524     16526
     16521     16524     16527     16525     16524     16526     16525     16524     16527
     16526     16524     16527     16478     16528     16529     16478     16528     16530
     16478     16528     16531     16529     16528     16530     16529     16528     16531
     16530     16528     16531     16528     16531     16532     16528     16531     16533
     16528     16531     16534     16532     16531     16533     16532     16531     16534
     16533     16531     16534     16531     16534     16535     16531     16534     16536
     16531     16534     16537     16535     16534     16536     16535     16534     16537
     16536     16534     16537     16534     16537     16538     16534     16537     16539
     16534     16537     16540     16538     16537     16539     16538     16537     16540
     16539     16537     16540     16537     16540     16541     16537     16540     16542
     16537     16540     16543     16541     16540     16542     16541     16540     16543
     16542     16540     16543     16540     16543     16544     16540     16543     16545
     16540     16543     16546     16544     16543     16545     16544     16543     16546
     16545     16543     16546     16543     16546     16547     16543     16546     16548
     16543     16546     16549     16547     16546     16548     16547     16546     16549
     16548     16546     16549     16546     16549     16550     16546     16549     16551
     16546     16549     16552     16550     16549     16551     16550     16549     16552
     16551     16549     16552     16549     16552     16553     16549     16552     16554
     16549     16552     16555     16553     16552     16554     16553     16552     16555
     16554     16552     16555     16552     16555     16556     16552     16555     16557
     16552     16555     16558     16556     16555     16557     16556     16555     16558
     16557     16555     16558     16555     16558     16559     16555     16558     16560
     16555     16558     16561     16559     16558     16560     16559     16558     16561
     16560     16558     16561     16558     16561     16562     16558     16561     16563
     16558     16561     16564     16562     16561     16563     16562     16561     16564
     16563     16561     16564     16561     16564     16565     16561     16564     16566
     16561     16564     16567     16565     16564     16566     16565     16564     16567
     16566     16564     16567     16564     16567     16568     16564     16567     16569
     16564     16567     16570     16568     16567     16569     16568     16567     16570
     16569     16567     16570     16572     16571     16575     16572     16571     16579
     16572     16571     16583     16575     16571     16579     16575     16571     16583
     16579     16571     16583     16571     16572     16573     16571     16572     16574
     16571     16572     16587     16573     16572     16574     16573     16572     16587
     16574     16572     16587     16571     16575     16576     16571     16575     16577
     16571     16575     16578     16576     16575     16577     16576     16575     16578
     16577     16575     16578     16571     16579     16580     16571     16579     16581
     16571     16579     16582     16580     16579     16581     16580     16579     16582
     16581     16579     16582     16571     16583     16584     16571     16583     16585
     16571     16583     16586     16584     16583     16585     16584     16583     16586
     16585     16583     16586     16572     16587     16588     16572     16587     16589
     16572     16587     16593     16588     16587     16589     16588     16587     16593
     16589     16587     16593     16591     16590     16592     16591     16590     16593
     16591     16590     16594     16592     16590     16593     16592     16590     16594
     16593     16590     16594     16587     16593     16590     16590     16594     16595
     16594     16595     16596     16594     16595     16597     16594     16595     16598
     16596     16595     16597     16596     16595     16598     16597     16595     16598
     16595     16598     16599     16595     16598     16600     16595     16598     16606
     16599     16598     16600     16599     16598     16606     16600     16598     16606
     16598     16600     16601     16600     16601     16602     16600     16601     16603
     16602     16601     16603     16601     16603     16604     16601     16603     16605
     16601     16603     16615     16604     16603     16605     16604     16603     16615
     16605     16603     16615     16598     16606     16607     16598     16606     16608
     16598     16606     16609     16607     16606     16608     16607     16606     16609
     16608     16606     16609     16606     16609     16610     16609     16610     16611
     16609     16610     16612     16611     16610     16612     16610     16612     16613
     16610     16612     16614     16610     16612     16662     16613     16612     16614
     16613     16612     16662     16614     16612     16662     16603     16615     16616
     16603     16615     16617     16603     16615     16618     16616     16615     16617
     16616     16615     16618     16617     16615     16618     16615     16618     16619
     16615     16618     16620     16615     16618     16621     16619     16618     16620
     16619     16618     16621     16620     16618     16621     16618     16621     16622
     16618     16621     16623     16618     16621     16624     16622     16621     16623
     16622     16621     16624     16623     16621     16624     16621     16624     16625
     16621     16624     16626     16621     16624     16627     16625     16624     16626
     16625     16624     16627     16626     16624     16627     16624     16627     16628
     16624     16627     16629     16624     16627     16630     16628     16627     16629
     16628     16627     16630     16629     16627     16630     16627     16630     16631
     16627     16630     16632     16627     16630     16633     16631     16630     16632
     16631     16630     16633     16632     16630     16633     16630     16633     16634
     16630     16633     16635     16634     16633     16635     16633     16635     16636
     16633     16635     16637     16636     16635     16637     16635     16637     16638
     16635     16637     16639     16635     16637     16640     16638     16637     16639
     16638     16637     16640     16639     16637     16640     16637     16640     16641
     16637     16640     16642     16637     16640     16643     16641     16640     16642
     16641     16640     16643     16642     16640     16643     16640     16643     16644
     16640     16643     16645     16640     16643     16646     16644     16643     16645
     16644     16643     16646     16645     16643     16646     16643     16646     16647
     16643     16646     16648     16643     16646     16649     16647     16646     16648
     16647     16646     16649     16648     16646     16649     16646     16649     16650
     16646     16649     16651     16646     16649     16652     16650     16649     16651
     16650     16649     16652     16651     16649     16652     16649     16652     16653
     16649     16652     16654     16649     16652     16655     16653     16652     16654
     16653     16652     16655     16654     16652     16655     16652     16655     16656
     16652     16655     16657     16652     16655     16658     16656     16655     16657
     16656     16655     16658     16657     16655     16658     16655     16658     16659
     16655     16658     16660     16655     16658     16661     16659     16658     16660
     16659     16658     16661     16660     16658     16661     16612     16662     16663
     16612     16662     16664     16612     16662     16665     16663     16662     16664
     16663     16662     16665     16664     16662     16665     16662     16665     16666
     16662     16665     16667     16662     16665     16668     16666     16665     16667
     16666     16665     16668     16667     16665     16668     16665     16668     16669
     16665     16668     16670     16665     16668     16671     16669     16668     16670
     16669     16668     16671     16670     16668     16671     16668     16671     16672
     16668     16671     16673     16668     16671     16674     16672     16671     16673
     16672     16671     16674     16673     16671     16674     16671     16674     16675
     16671     16674     16676     16671     16674     16677     16675     16674     16676
     16675     16674     16677     16676     16674     16677     16674     16677     16678
     16674     16677     16679     16674     16677     16680     16678     16677     16679
     16678     16677     16680     16679     16677     16680     16677     16680     16681
     16677     16680     16682     16677     16680     16683     16681     16680     16682
     16681     16680     16683     16682     16680     16683     16680     16683     16684
     16680     16683     16685     16680     16683     16686     16684     16683     16685
     16684     16683     16686     16685     16683     16686     16683     16686     16687
     16683     16686     16688     16683     16686     16689     16687     16686     16688
     16687     16686     16689     16688     16686     16689     16686     16689     16690
     16686     16689     16691     16686     16689     16692     16690     16689     16691
     16690     16689     16692     16691     16689     16692     16689     16692     16693
     16689     16692     16694     16689     16692     16695     16693     16692     16694
     16693     16692     16695     16694     16692     16695     16692     16695     16696
     16692     16695     16697     16692     16695     16698     16696     16695     16697
     16696     16695     16698     16697     16695     16698     16695     16698     16699
     16695     16698     16700     16695     16698     16701     16699     16698     16700
     16699     16698     16701     16700     16698     16701     16698     16701     16702
     16698     16701     16703     16698     16701     16704     16702     16701     16703
     16702     16701     16704     16703     16701     16704     16706     16705     16709
     16706     16705     16713     16706     16705     16717     16709     16705     16713
     16709     16705     16717     16713     16705     16717     16705     16706     16707
     16705     16706     16708     16705     16706     16721     16707     16706     16708
     16707     16706     16721     16708     16706     16721     16705     16709     16710
     16705     16709     16711     16705     16709     16712     16710     16709     16711
     16710     16709     16712     16711     16709     16712     16705     16713     16714
     16705     16713     16715     16705     16713     16716     16714     16713     16715
     16714     16713     16716     16715     16713     16716     16705     16717     16718
     16705     16717     16719     16705     16717     16720     16718     16717     16719
     16718     16717     16720     16719     16717     16720     16706     16721     16722
     16706     16721     16723     16706     16721     16727     16722     16721     16723
     16722     16721     16727     16723     16721     16727     16725     16724     16726
     16725     16724     16727     16725     16724     16728     16726     16724     16727
     16726     16724     16728     16727     16724     16728     16721     16727     16724
     16724     16728     16729     16728     16729     16730     16728     16729     16731
     16728     16729     16732     16730     16729     16731     16730     16729     16732
     16731     16729     16732     16729     16732     16733     16729     16732     16734
     16729     16732     16740     16733     16732     16734     16733     16732     16740
     16734     16732     16740     16732     16734     16735     16734     16735     16736
     16734     16735     16737     16736     16735     16737     16735     16737     16738
     16735     16737     16739     16735     16737     16749     16738     16737     16739
     16738     16737     16749     16739     16737     16749     16732     16740     16741
     16732     16740     16742     16732     16740     16743     16741     16740     16742
     16741     16740     16743     16742     16740     16743     16740     16743     16744
     16743     16744     16745     16743     16744     16746     16745     16744     16746
     16744     16746     16747     16744     16746     16748     16744     16746     16796
     16747     16746     16748     16747     16746     16796     16748     16746     16796
     16737     16749     16750     16737     16749     16751     16737     16749     16752
     16750     16749     16751     16750     16749     16752     16751     16749     16752
     16749     16752     16753     16749     16752     16754     16749     16752     16755
     16753     16752     16754     16753     16752     16755     16754     16752     16755
     16752     16755     16756     16752     16755     16757     16752     16755     16758
     16756     16755     16757     16756     16755     16758     16757     16755     16758
     16755     16758     16759     16755     16758     16760     16755     16758     16761
     16759     16758     16760     16759     16758     16761     16760     16758     16761
     16758     16761     16762     16758     16761     16763     16758     16761     16764
     16762     16761     16763     16762     16761     16764     16763     16761     16764
     16761     16764     16765     16761     16764     16766     16761     16764     16767
     16765     16764     16766     16765     16764     16767     16766     16764     16767
     16764     16767     16768     16764     16767     16769     16768     16767     16769
     16767     16769     16770     16767     16769     16771     16770     16769     16771
     16769     16771     16772     16769     16771     16773     16769     16771     16774
     16772     16771     16773     16772     16771     16774     16773     16771     16774
     16771     16774     16775     16771     16774     16776     16771     16774     16777
     16775     16774     16776     16775     16774     16777     16776     16774     16777
     16774     16777     16778     16774     16777     16779     16774     16777     16780
     16778     16777     16779     16778     16777     16780     16779     16777     16780
     16777     16780     16781     16777     16780     16782     16777     16780     16783
     16781     16780     16782     16781     16780     16783     16782     16780     16783
     16780     16783     16784     16780     16783     16785     16780     16783     16786
     16784     16783     16785     16784     16783     16786     16785     16783     16786
     16783     16786     16787     16783     16786     16788     16783     16786     16789
     16787     16786     16788     16787     16786     16789     16788     16786     16789
     16786     16789     16790     16786     16789     16791     16786     16789     16792
     16790     16789     16791     16790     16789     16792     16791     16789     16792
     16789     16792     16793     16789     16792     16794     16789     16792     16795
     16793     16792     16794     16793     16792     16795     16794     16792     16795
     16746     16796     16797     16746     16796     16798     16746     16796     16799
     16797     16796     16798     16797     16796     16799     16798     16796     16799
     16796     16799     16800     16796     16799     16801     16796     16799     16802
     16800     16799     16801     16800     16799     16802     16801     16799     16802
     16799     16802     16803     16799     16802     16804     16799     16802     16805
     16803     16802     16804     16803     16802     16805     16804     16802     16805
     16802     16805     16806     16802     16805     16807     16802     16805     16808
     16806     16805     16807     16806     16805     16808     16807     16805     16808
     16805     16808     16809     16805     16808     16810     16805     16808     16811
     16809     16808     16810     16809     16808     16811     16810     16808     16811
     16808     16811     16812     16808     16811     16813     16808     16811     16814
     16812     16811     16813     16812     16811     16814     16813     16811     16814
     16811     16814     16815     16811     16814     16816     16811     16814     16817
     16815     16814     16816     16815     16814     16817     16816     16814     16817
     16814     16817     16818     16814     16817     16819     16814     16817     16820
     16818     16817     16819     16818     16817     16820     16819     16817     16820
     16817     16820     16821     16817     16820     16822     16817     16820     16823
     16821     16820     16822     16821     16820     16823     16822     16820     16823
     16820     16823     16824     16820     16823     16825     16820     16823     16826
     16824     16823     16825     16824     16823     16826     16825     16823     16826
     16823     16826     16827     16823     16826     16828     16823     16826     16829
     16827     16826     16828     16827     16826     16829     16828     16826     16829
     16826     16829     16830     16826     16829     16831     16826     16829     16832
     16830     16829     16831     16830     16829     16832     16831     16829     16832
     16829     16832     16833     16829     16832     16834     16829     16832     16835
     16833     16832     16834     16833     16832     16835     16834     16832     16835
     16832     16835     16836     16832     16835     16837     16832     16835     16838
     16836     16835     16837     16836     16835     16838     16837     16835     16838
     16840     16839     16843     16840     16839     16847     16840     16839     16851
     16843     16839     16847     16843     16839     16851     16847     16839     16851
     16839     16840     16841     16839     16840     16842     16839     16840     16855
     16841     16840     16842     16841     16840     16855     16842     16840     16855
     16839     16843     16844     16839     16843     16845     16839     16843     16846
     16844     16843     16845     16844     16843     16846     16845     16843     16846
     16839     16847     16848     16839     16847     16849     16839     16847     16850
     16848     16847     16849     16848     16847     16850     16849     16847     16850
     16839     16851     16852     16839     16851     16853     16839     16851     16854
     16852     16851     16853     16852     16851     16854     16853     16851     16854
     16840     16855     16856     16840     16855     16857     16840     16855     16861
     16856     16855     16857     16856     16855     16861     16857     16855     16861
     16859     16858     16860     16859     16858     16861     16859     16858     16862
     16860     16858     16861     16860     16858     16862     16861     16858     16862
     16855     16861     16858     16858     16862     16863     16862     16863     16864
     16862     16863     16865     16862     16863     16866     16864     16863     16865
     16864     16863     16866     16865     16863     16866     16863     16866     16867
     16863     16866     16868     16863     16866     16874     16867     16866     16868
     16867     16866     16874     16868     16866     16874     16866     16868     16869
     16868     16869     16870     16868     16869     16871     16870     16869     16871
     16869     16871     16872     16869     16871     16873     16869     16871     16883
     16872     16871     16873     16872     16871     16883     16873     16871     16883
     16866     16874     16875     16866     16874     16876     16866     16874     16877
     16875     16874     16876     16875     16874     16877     16876     16874     16877
     16874     16877     16878     16877     16878     16879     16877     16878     16880
     16879     16878     16880     16878     16880     16881     16878     16880     16882
     16878     16880     16930     16881     16880     16882     16881     16880     16930
     16882     16880     16930     16871     16883     16884     16871     16883     16885
     16871     16883     16886     16884     16883     16885     16884     16883     16886
     16885     16883     16886     16883     16886     16887     16883     16886     16888
     16883     16886     16889     16887     16886     16888     16887     16886     16889
     16888     16886     16889     16886     16889     16890     16886     16889     16891
     16886     16889     16892     16890     16889     16891     16890     16889     16892
     16891     16889     16892     16889     16892     16893     16889     16892     16894
     16889     16892     16895     16893     16892     16894     16893     16892     16895
     16894     16892     16895     16892     16895     16896     16892     16895     16897
     16892     16895     16898     16896     16895     16897     16896     16895     16898
     16897     16895     16898     16895     16898     16899     16895     16898     16900
     16895     16898     16901     16899     16898     16900     16899     16898     16901
     16900     16898     16901     16898     16901     16902     16898     16901     16903
     16902     16901     16903     16901     16903     16904     16901     16903     16905
     16904     16903     16905     16903     16905     16906     16903     16905     16907
     16903     16905     16908     16906     16905     16907     16906     16905     16908
     16907     16905     16908     16905     16908     16909     16905     16908     16910
     16905     16908     16911     16909     16908     16910     16909     16908     16911
     16910     16908     16911     16908     16911     16912     16908     16911     16913
     16908     16911     16914     16912     16911     16913     16912     16911     16914
     16913     16911     16914     16911     16914     16915     16911     16914     16916
     16911     16914     16917     16915     16914     16916     16915     16914     16917
     16916     16914     16917     16914     16917     16918     16914     16917     16919
     16914     16917     16920     16918     16917     16919     16918     16917     16920
     16919     16917     16920     16917     16920     16921     16917     16920     16922
     16917     16920     16923     16921     16920     16922     16921     16920     16923
     16922     16920     16923     16920     16923     16924     16920     16923     16925
     16920     16923     16926     16924     16923     16925     16924     16923     16926
     16925     16923     16926     16923     16926     16927     16923     16926     16928
     16923     16926     16929     16927     16926     16928     16927     16926     16929
     16928     16926     16929     16880     16930     16931     16880     16930     16932
     16880     16930     16933     16931     16930     16932     16931     16930     16933
     16932     16930     16933     16930     16933     16934     16930     16933     16935
     16930     16933     16936     16934     16933     16935     16934     16933     16936
     16935     16933     16936     16933     16936     16937     16933     16936     16938
     16933     16936     16939     16937     16936     16938     16937     16936     16939
     16938     16936     16939     16936     16939     16940     16936     16939     16941
     16936     16939     16942     16940     16939     16941     16940     16939     16942
     16941     16939     16942     16939     16942     16943     16939     16942     16944
     16939     16942     16945     16943     16942     16944     16943     16942     16945
     16944     16942     16945     16942     16945     16946     16942     16945     16947
     16942     16945     16948     16946     16945     16947     16946     16945     16948
     16947     16945     16948     16945     16948     16949     16945     16948     16950
     16945     16948     16951     16949     16948     16950     16949     16948     16951
     16950     16948     16951     16948     16951     16952     16948     16951     16953
     16948     16951     16954     16952     16951     16953     16952     16951     16954
     16953     16951     16954     16951     16954     16955     16951     16954     16956
     16951     16954     16957     16955     16954     16956     16955     16954     16957
     16956     16954     16957     16954     16957     16958     16954     16957     16959
     16954     16957     16960     16958     16957     16959     16958     16957     16960
     16959     16957     16960     16957     16960     16961     16957     16960     16962
     16957     16960     16963     16961     16960     16962     16961     16960     16963
     16962     16960     16963     16960     16963     16964     16960     16963     16965
     16960     16963     16966     16964     16963     16965     16964     16963     16966
     16965     16963     16966     16963     16966     16967     16963     16966     16968
     16963     16966     16969     16967     16966     16968     16967     16966     16969
     16968     16966     16969     16966     16969     16970     16966     16969     16971
     16966     16969     16972     16970     16969     16971     16970     16969     16972
     16971     16969     16972     16974     16973     16977     16974     16973     16981
     16974     16973     16985     16977     16973     16981     16977     16973     16985
     16981     16973     16985     16973     16974     16975     16973     16974     16976
     16973     16974     16989     16975     16974     16976     16975     16974     16989
     16976     16974     16989     16973     16977     16978     16973     16977     16979
     16973     16977     16980     16978     16977     16979     16978     16977     16980
     16979     16977     16980     16973     16981     16982     16973     16981     16983
     16973     16981     16984     16982     16981     16983     16982     16981     16984
     16983     16981     16984     16973     16985     16986     16973     16985     16987
     16973     16985     16988     16986     16985     16987     16986     16985     16988
     16987     16985     16988     16974     16989     16990     16974     16989     16991
     16974     16989     16995     16990     16989     16991     16990     16989     16995
     16991     16989     16995     16993     16992     16994     16993     16992     16995
     16993     16992     16996     16994     16992     16995     16994     16992     16996
     16995     16992     16996     16989     16995     16992     16992     16996     16997
     16996     16997     16998     16996     16997     16999     16996     16997     17000
     16998     16997     16999     16998     16997     17000     16999     16997     17000
     16997     17000     17001     16997     17000     17002     16997     17000     17008
     17001     17000     17002     17001     17000     17008     17002     17000     17008
     17000     17002     17003     17002     17003     17004     17002     17003     17005
     17004     17003     17005     17003     17005     17006     17003     17005     17007
     17003     17005     17017     17006     17005     17007     17006     17005     17017
     17007     17005     17017     17000     17008     17009     17000     17008     17010
     17000     17008     17011     17009     17008     17010     17009     17008     17011
     17010     17008     17011     17008     17011     17012     17011     17012     17013
     17011     17012     17014     17013     17012     17014     17012     17014     17015
     17012     17014     17016     17012     17014     17064     17015     17014     17016
     17015     17014     17064     17016     17014     17064     17005     17017     17018
     17005     17017     17019     17005     17017     17020     17018     17017     17019
     17018     17017     17020     17019     17017     17020     17017     17020     17021
     17017     17020     17022     17017     17020     17023     17021     17020     17022
     17021     17020     17023     17022     17020     17023     17020     17023     17024
     17020     17023     17025     17020     17023     17026     17024     17023     17025
     17024     17023     17026     17025     17023     17026     17023     17026     17027
     17023     17026     17028     17023     17026     17029     17027     17026     17028
     17027     17026     17029     17028     17026     17029     17026     17029     17030
     17026     17029     17031     17026     17029     17032     17030     17029     17031
     17030     17029     17032     17031     17029     17032     17029     17032     17033
     17029     17032     17034     17029     17032     17035     17033     17032     17034
     17033     17032     17035     17034     17032     17035     17032     17035     17036
     17032     17035     17037     17036     17035     17037     17035     17037     17038
     17035     17037     17039     17038     17037     17039     17037     17039     17040
     17037     17039     17041     17037     17039     17042     17040     17039     17041
     17040     17039     17042     17041     17039     17042     17039     17042     17043
     17039     17042     17044     17039     17042     17045     17043     17042     17044
     17043     17042     17045     17044     17042     17045     17042     17045     17046
     17042     17045     17047     17042     17045     17048     17046     17045     17047
     17046     17045     17048     17047     17045     17048     17045     17048     17049
     17045     17048     17050     17045     17048     17051     17049     17048     17050
     17049     17048     17051     17050     17048     17051     17048     17051     17052
     17048     17051     17053     17048     17051     17054     17052     17051     17053
     17052     17051     17054     17053     17051     17054     17051     17054     17055
     17051     17054     17056     17051     17054     17057     17055     17054     17056
     17055     17054     17057     17056     17054     17057     17054     17057     17058
     17054     17057     17059     17054     17057     17060     17058     17057     17059
     17058     17057     17060     17059     17057     17060     17057     17060     17061
     17057     17060     17062     17057     17060     17063     17061     17060     17062
     17061     17060     17063     17062     17060     17063     17014     17064     17065
     17014     17064     17066     17014     17064     17067     17065     17064     17066
     17065     17064     17067     17066     17064     17067     17064     17067     17068
     17064     17067     17069     17064     17067     17070     17068     17067     17069
     17068     17067     17070     17069     17067     17070     17067     17070     17071
     17067     17070     17072     17067     17070     17073     17071     17070     17072
     17071     17070     17073     17072     17070     17073     17070     17073     17074
     17070     17073     17075     17070     17073     17076     17074     17073     17075
     17074     17073     17076     17075     17073     17076     17073     17076     17077
     17073     17076     17078     17073     17076     17079     17077     17076     17078
     17077     17076     17079     17078     17076     17079     17076     17079     17080
     17076     17079     17081     17076     17079     17082     17080     17079     17081
     17080     17079     17082     17081     17079     17082     17079     17082     17083
     17079     17082     17084     17079     17082     17085     17083     17082     17084
     17083     17082     17085     17084     17082     17085     17082     17085     17086
     17082     17085     17087     17082     17085     17088     17086     17085     17087
     17086     17085     17088     17087     17085     17088     17085     17088     17089
     17085     17088     17090     17085     17088     17091     17089     17088     17090
     17089     17088     17091     17090     17088     17091     17088     17091     17092
     17088     17091     17093     17088     17091     17094     17092     17091     17093
     17092     17091     17094     17093     17091     17094     17091     17094     17095
     17091     17094     17096     17091     17094     17097     17095     17094     17096
     17095     17094     17097     17096     17094     17097     17094     17097     17098
     17094     17097     17099     17094     17097     17100     17098     17097     17099
     17098     17097     17100     17099     17097     17100     17097     17100     17101
     17097     17100     17102     17097     17100     17103     17101     17100     17102
     17101     17100     17103     17102     17100     17103     17100     17103     17104
     17100     17103     17105     17100     17103     17106     17104     17103     17105
     17104     17103     17106     17105     17103     17106     17108     17107     17111
     17108     17107     17115     17108     17107     17119     17111     17107     17115
     17111     17107     17119     17115     17107     17119     17107     17108     17109
     17107     17108     17110     17107     17108     17123     17109     17108     17110
     17109     17108     17123     17110     17108     17123     17107     17111     17112
     17107     17111     17113     17107     17111     17114     17112     17111     17113
     17112     17111     17114     17113     17111     17114     17107     17115     17116
     17107     17115     17117     17107     17115     17118     17116     17115     17117
     17116     17115     17118     17117     17115     17118     17107     17119     17120
     17107     17119     17121     17107     17119     17122     17120     17119     17121
     17120     17119     17122     17121     17119     17122     17108     17123     17124
     17108     17123     17125     17108     17123     17129     17124     17123     17125
     17124     17123     17129     17125     17123     17129     17127     17126     17128
     17127     17126     17129     17127     17126     17130     17128     17126     17129
     17128     17126     17130     17129     17126     17130     17123     17129     17126
     17126     17130     17131     17130     17131     17132     17130     17131     17133
     17130     17131     17134     17132     17131     17133     17132     17131     17134
     17133     17131     17134     17131     17134     17135     17131     17134     17136
     17131     17134     17142     17135     17134     17136     17135     17134     17142
     17136     17134     17142     17134     17136     17137     17136     17137     17138
     17136     17137     17139     17138     17137     17139     17137     17139     17140
     17137     17139     17141     17137     17139     17151     17140     17139     17141
     17140     17139     17151     17141     17139     17151     17134     17142     17143
     17134     17142     17144     17134     17142     17145     17143     17142     17144
     17143     17142     17145     17144     17142     17145     17142     17145     17146
     17145     17146     17147     17145     17146     17148     17147     17146     17148
     17146     17148     17149     17146     17148     17150     17146     17148     17198
     17149     17148     17150     17149     17148     17198     17150     17148     17198
     17139     17151     17152     17139     17151     17153     17139     17151     17154
     17152     17151     17153     17152     17151     17154     17153     17151     17154
     17151     17154     17155     17151     17154     17156     17151     17154     17157
     17155     17154     17156     17155     17154     17157     17156     17154     17157
     17154     17157     17158     17154     17157     17159     17154     17157     17160
     17158     17157     17159     17158     17157     17160     17159     17157     17160
     17157     17160     17161     17157     17160     17162     17157     17160     17163
     17161     17160     17162     17161     17160     17163     17162     17160     17163
     17160     17163     17164     17160     17163     17165     17160     17163     17166
     17164     17163     17165     17164     17163     17166     17165     17163     17166
     17163     17166     17167     17163     17166     17168     17163     17166     17169
     17167     17166     17168     17167     17166     17169     17168     17166     17169
     17166     17169     17170     17166     17169     17171     17170     17169     17171
     17169     17171     17172     17169     17171     17173     17172     17171     17173
     17171     17173     17174     17171     17173     17175     17171     17173     17176
     17174     17173     17175     17174     17173     17176     17175     17173     17176
     17173     17176     17177     17173     17176     17178     17173     17176     17179
     17177     17176     17178     17177     17176     17179     17178     17176     17179
     17176     17179     17180     17176     17179     17181     17176     17179     17182
     17180     17179     17181     17180     17179     17182     17181     17179     17182
     17179     17182     17183     17179     17182     17184     17179     17182     17185
     17183     17182     17184     17183     17182     17185     17184     17182     17185
     17182     17185     17186     17182     17185     17187     17182     17185     17188
     17186     17185     17187     17186     17185     17188     17187     17185     17188
     17185     17188     17189     17185     17188     17190     17185     17188     17191
     17189     17188     17190     17189     17188     17191     17190     17188     17191
     17188     17191     17192     17188     17191     17193     17188     17191     17194
     17192     17191     17193     17192     17191     17194     17193     17191     17194
     17191     17194     17195     17191     17194     17196     17191     17194     17197
     17195     17194     17196     17195     17194     17197     17196     17194     17197
     17148     17198     17199     17148     17198     17200     17148     17198     17201
     17199     17198     17200     17199     17198     17201     17200     17198     17201
     17198     17201     17202     17198     17201     17203     17198     17201     17204
     17202     17201     17203     17202     17201     17204     17203     17201     17204
     17201     17204     17205     17201     17204     17206     17201     17204     17207
     17205     17204     17206     17205     17204     17207     17206     17204     17207
     17204     17207     17208     17204     17207     17209     17204     17207     17210
     17208     17207     17209     17208     17207     17210     17209     17207     17210
     17207     17210     17211     17207     17210     17212     17207     17210     17213
     17211     17210     17212     17211     17210     17213     17212     17210     17213
     17210     17213     17214     17210     17213     17215     17210     17213     17216
     17214     17213     17215     17214     17213     17216     17215     17213     17216
     17213     17216     17217     17213     17216     17218     17213     17216     17219
     17217     17216     17218     17217     17216     17219     17218     17216     17219
     17216     17219     17220     17216     17219     17221     17216     17219     17222
     17220     17219     17221     17220     17219     17222     17221     17219     17222
     17219     17222     17223     17219     17222     17224     17219     17222     17225
     17223     17222     17224     17223     17222     17225     17224     17222     17225
     17222     17225     17226     17222     17225     17227     17222     17225     17228
     17226     17225     17227     17226     17225     17228     17227     17225     17228
     17225     17228     17229     17225     17228     17230     17225     17228     17231
     17229     17228     17230     17229     17228     17231     17230     17228     17231
     17228     17231     17232     17228     17231     17233     17228     17231     17234
     17232     17231     17233     17232     17231     17234     17233     17231     17234
     17231     17234     17235     17231     17234     17236     17231     17234     17237
     17235     17234     17236     17235     17234     17237     17236     17234     17237
     17234     17237     17238     17234     17237     17239     17234     17237     17240
     17238     17237     17239     17238     17237     17240     17239     17237     17240
     17242     17241     17245     17242     17241     17249     17242     17241     17253
     17245     17241     17249     17245     17241     17253     17249     17241     17253
     17241     17242     17243     17241     17242     17244     17241     17242     17257
     17243     17242     17244     17243     17242     17257     17244     17242     17257
     17241     17245     17246     17241     17245     17247     17241     17245     17248
     17246     17245     17247     17246     17245     17248     17247     17245     17248
     17241     17249     17250     17241     17249     17251     17241     17249     17252
     17250     17249     17251     17250     17249     17252     17251     17249     17252
     17241     17253     17254     17241     17253     17255     17241     17253     17256
     17254     17253     17255     17254     17253     17256     17255     17253     17256
     17242     17257     17258     17242     17257     17259     17242     17257     17263
     17258     17257     17259     17258     17257     17263     17259     17257     17263
     17261     17260     17262     17261     17260     17263     17261     17260     17264
     17262     17260     17263     17262     17260     17264     17263     17260     17264
     17257     17263     17260     17260     17264     17265     17264     17265     17266
     17264     17265     17267     17264     17265     17268     17266     17265     17267
     17266     17265     17268     17267     17265     17268     17265     17268     17269
     17265     17268     17270     17265     17268     17276     17269     17268     17270
     17269     17268     17276     17270     17268     17276     17268     17270     17271
     17270     17271     17272     17270     17271     17273     17272     17271     17273
     17271     17273     17274     17271     17273     17275     17271     17273     17285
     17274     17273     17275     17274     17273     17285     17275     17273     17285
     17268     17276     17277     17268     17276     17278     17268     17276     17279
     17277     17276     17278     17277     17276     17279     17278     17276     17279
     17276     17279     17280     17279     17280     17281     17279     17280     17282
     17281     17280     17282     17280     17282     17283     17280     17282     17284
     17280     17282     17332     17283     17282     17284     17283     17282     17332
     17284     17282     17332     17273     17285     17286     17273     17285     17287
     17273     17285     17288     17286     17285     17287     17286     17285     17288
     17287     17285     17288     17285     17288     17289     17285     17288     17290
     17285     17288     17291     17289     17288     17290     17289     17288     17291
     17290     17288     17291     17288     17291     17292     17288     17291     17293
     17288     17291     17294     17292     17291     17293     17292     17291     17294
     17293     17291     17294     17291     17294     17295     17291     17294     17296
     17291     17294     17297     17295     17294     17296     17295     17294     17297
     17296     17294     17297     17294     17297     17298     17294     17297     17299
     17294     17297     17300     17298     17297     17299     17298     17297     17300
     17299     17297     17300     17297     17300     17301     17297     17300     17302
     17297     17300     17303     17301     17300     17302     17301     17300     17303
     17302     17300     17303     17300     17303     17304     17300     17303     17305
     17304     17303     17305     17303     17305     17306     17303     17305     17307
     17306     17305     17307     17305     17307     17308     17305     17307     17309
     17305     17307     17310     17308     17307     17309     17308     17307     17310
     17309     17307     17310     17307     17310     17311     17307     17310     17312
     17307     17310     17313     17311     17310     17312     17311     17310     17313
     17312     17310     17313     17310     17313     17314     17310     17313     17315
     17310     17313     17316     17314     17313     17315     17314     17313     17316
     17315     17313     17316     17313     17316     17317     17313     17316     17318
     17313     17316     17319     17317     17316     17318     17317     17316     17319
     17318     17316     17319     17316     17319     17320     17316     17319     17321
     17316     17319     17322     17320     17319     17321     17320     17319     17322
     17321     17319     17322     17319     17322     17323     17319     17322     17324
     17319     17322     17325     17323     17322     17324     17323     17322     17325
     17324     17322     17325     17322     17325     17326     17322     17325     17327
     17322     17325     17328     17326     17325     17327     17326     17325     17328
     17327     17325     17328     17325     17328     17329     17325     17328     17330
     17325     17328     17331     17329     17328     17330     17329     17328     17331
     17330     17328     17331     17282     17332     17333     17282     17332     17334
     17282     17332     17335     17333     17332     17334     17333     17332     17335
     17334     17332     17335     17332     17335     17336     17332     17335     17337
     17332     17335     17338     17336     17335     17337     17336     17335     17338
     17337     17335     17338     17335     17338     17339     17335     17338     17340
     17335     17338     17341     17339     17338     17340     17339     17338     17341
     17340     17338     17341     17338     17341     17342     17338     17341     17343
     17338     17341     17344     17342     17341     17343     17342     17341     17344
     17343     17341     17344     17341     17344     17345     17341     17344     17346
     17341     17344     17347     17345     17344     17346     17345     17344     17347
     17346     17344     17347     17344     17347     17348     17344     17347     17349
     17344     17347     17350     17348     17347     17349     17348     17347     17350
     17349     17347     17350     17347     17350     17351     17347     17350     17352
     17347     17350     17353     17351     17350     17352     17351     17350     17353
     17352     17350     17353     17350     17353     17354     17350     17353     17355
     17350     17353     17356     17354     17353     17355     17354     17353     17356
     17355     17353     17356     17353     17356     17357     17353     17356     17358
     17353     17356     17359     17357     17356     17358     17357     17356     17359
     17358     17356     17359     17356     17359     17360     17356     17359     17361
     17356     17359     17362     17360     17359     17361     17360     17359     17362
     17361     17359     17362     17359     17362     17363     17359     17362     17364
     17359     17362     17365     17363     17362     17364     17363     17362     17365
     17364     17362     17365     17362     17365     17366     17362     17365     17367
     17362     17365     17368     17366     17365     17367     17366     17365     17368
     17367     17365     17368     17365     17368     17369     17365     17368     17370
     17365     17368     17371     17369     17368     17370     17369     17368     17371
     17370     17368     17371     17368     17371     17372     17368     17371     17373
     17368     17371     17374     17372     17371     17373     17372     17371     17374
     17373     17371     17374     17376     17375     17377     17379     17378     17380
     17382     17381     17383     17385     17384     17386     17388     17387     17389
     17391     17390     17392     17394     17393     17395     17397     17396     17398
     17400     17399     17401     17403     17402     17404     17406     17405     17407
     17409     17408     17410     17412     17411     17413     17415     17414     17416
     17418     17417     17419     17421     17420     17422     17424     17423     17425
     17427     17426     17428     17430     17429     17431     17433     17432     17434
     17436     17435     17437     17439     17438     17440     17442     17441     17443
     17445     17444     17446     17448     17447     17449     17451     17450     17452
     17454     17453     17455     17457     17456     17458     17460     17459     17461
     17463     17462     17464     17466     17465     17467     17469     17468     17470
     17472     17471     17473     17475     17474     17476     17478     17477     17479
     17481     17480     17482     17484     17483     17485     17487     17486     17488
     17490     17489     17491     17493     17492     17494     17496     17495     17497
     17499     17498     17500     17502     17501     17503     17505     17504     17506
     17508     17507     17509     17511     17510     17512     17514     17513     17515
     17517     17516     17518     17520     17519     17521     17523     17522     17524
     17526     17525     17527     17529     17528     17530     17532     17531     17533
     17535     17534     17536     17538     17537     17539     17541     17540     17542
     17544     17543     17545     17547     17546     17548     17550     17549     17551
     17553     17552     17554     17556     17555     17557     17559     17558     17560
     17562     17561     17563     17565     17564     17566     17568     17567     17569
     17571     17570     17572     17574     17573     17575     17577     17576     17578
     17580     17579     17581     17583     17582     17584     17586     17585     17587
     17589     17588     17590     17592     17591     17593     17595     17594     17596
     17598     17597     17599     17601     17600     17602     17604     17603     17605
     17607     17606     17608     17610     17609     17611     17613     17612     17614
     17616     17615     17617     17619     17618     17620     17622     17621     17623
     17625     17624     17626     17628     17627     17629     17631     17630     17632
     17634     17633     17635     17637     17636     17638     17640     17639     17641
     17643     17642     17644     17646     17645     17647     17649     17648     17650
     17652     17651     17653     17655     17654     17656     17658     17657     17659
     17661     17660     17662     17664     17663     17665     17667     17666     17668
     17670     17669     17671     17673     17672     17674     17676     17675     17677
     17679     17678     17680     17682     17681     17683     17685     17684     17686
     17688     17687     17689     17691     17690     17692     17694     17693     17695
     17697     17696     17698     17700     17699     17701     17703     17702     17704
     17706     17705     17707     17709     17708     17710     17712     17711     17713
     17715     17714     17716     17718     17717     17719     17721     17720     17722
     17724     17723     17725     17727     17726     17728     17730     17729     17731
     17733     17732     17734     17736     17735     17737     17739     17738     17740
     17742     17741     17743     17745     17744     17746     17748     17747     17749
     17751     17750     17752     17754     17753     17755     17757     17756     17758
     17760     17759     17761     17763     17762     17764     17766     17765     17767
     17769     17768     17770     17772     17771     17773     17775     17774     17776
     17778     17777     17779     17781     17780     17782     17784     17783     17785
     17787     17786     17788     17790     17789     17791     17793     17792     17794
     17796     17795     17797     17799     17798     17800     17802     17801     17803
     17805     17804     17806     17808     17807     17809     17811     17810     17812
     17814     17813     17815     17817     17816     17818     17820     17819     17821
     17823     17822     17824     17826     17825     17827     17829     17828     17830
     17832     17831     17833     17835     17834     17836     17838     17837     17839
     17841     17840     17842     17844     17843     17845     17847     17846     17848
     17850     17849     17851     17853     17852     17854     17856     17855     17857
     17859     17858     17860     17862     17861     17863     17865     17864     17866
     17868     17867     17869     17871     17870     17872     17874     17873     17875
     17877     17876     17878     17880     17879     17881     17883     17882     17884
     17886     17885     17887     17889     17888     17890     17892     17891     17893
     17895     17894     17896     17898     17897     17899     17901     17900     17902
     17904     17903     17905     17907     17906     17908     17910     17909     17911
     17913     17912     17914     17916     17915     17917     17919     17918     17920
     17922     17921     17923     17925     17924     17926     17928     17927     17929
     17931     17930     17932     17934     17933     17935     17937     17936     17938
     17940     17939     17941     17943     17942     17944     17946     17945     17947
     17949     17948     17950     17952     17951     17953     17955     17954     17956
     17958     17957     17959     17961     17960     17962     17964     17963     17965
     17967     17966     17968     17970     17969     17971     17973     17972     17974
     17976     17975     17977     17979     17978     17980     17982     17981     17983
     17985     17984     17986     17988     17987     17989     17991     17990     17992
     17994     17993     17995     17997     17996     17998     18000     17999     18001
     18003     18002     18004     18006     18005     18007     18009     18008     18010
     18012     18011     18013     18015     18014     18016     18018     18017     18019
     18021     18020     18022     18024     18023     18025     18027     18026     18028
     18030     18029     18031     18033     18032     18034     18036     18035     18037
     18039     18038     18040     18042     18041     18043     18045     18044     18046
     18048     18047     18049     18051     18050     18052     18054     18053     18055
     18057     18056     18058     18060     18059     18061     18063     18062     18064
     18066     18065     18067     18069     18068     18070     18072     18071     18073
     18075     18074     18076     18078     18077     18079     18081     18080     18082
     18084     18083     18085     18087     18086     18088     18090     18089     18091
     18093     18092     18094     18096     18095     18097     18099     18098     18100
     18102     18101     18103     18105     18104     18106     18108     18107     18109
     18111     18110     18112     18114     18113     18115     18117     18116     18118
     18120     18119     18121     18123     18122     18124     18126     18125     18127
     18129     18128     18130     18132     18131     18133     18135     18134     18136
     18138     18137     18139     18141     18140     18142     18144     18143     18145
     18147     18146     18148     18150     18149     18151     18153     18152     18154
     18156     18155     18157     18159     18158     18160     18162     18161     18163
     18165     18164     18166     18168     18167     18169     18171     18170     18172
     18174     18173     18175     18177     18176     18178     18180     18179     18181
     18183     18182     18184     18186     18185     18187     18189     18188     18190
     18192     18191     18193     18195     18194     18196     18198     18197     18199
     18201     18200     18202     18204     18203     18205     18207     18206     18208
     18210     18209     18211     18213     18212     18214     18216     18215     18217
     18219     18218     18220     18222     18221     18223     18225     18224     18226
     18228     18227     18229     18231     18230     18232     18234     18233     18235
     18237     18236     18238     18240     18239     18241     18243     18242     18244
     18246     18245     18247     18249     18248     18250     18252     18251     18253
     18255     18254     18256     18258     18257     18259     18261     18260     18262
     18264     18263     18265     18267     18266     18268     18270     18269     18271
     18273     18272     18274     18276     18275     18277     18279     18278     18280
     18282     18281     18283     18285     18284     18286     18288     18287     18289
     18291     18290     18292     18294     18293     18295     18297     18296     18298
     18300     18299     18301     18303     18302     18304     18306     18305     18307
     18309     18308     18310     18312     18311     18313     18315     18314     18316
     18318     18317     18319     18321     18320     18322     18324     18323     18325
     18327     18326     18328     18330     18329     18331     18333     18332     18334
     18336     18335     18337     18339     18338     18340     18342     18341     18343
     18345     18344     18346     18348     18347     18349     18351     18350     18352
     18354     18353     18355     18357     18356     18358     18360     18359     18361
     18363     18362     18364     18366     18365     18367     18369     18368     18370
     18372     18371     18373     18375     18374     18376     18378     18377     18379
     18381     18380     18382     18384     18383     18385     18387     18386     18388
     18390     18389     18391     18393     18392     18394     18396     18395     18397
     18399     18398     18400     18402     18401     18403     18405     18404     18406
     18408     18407     18409     18411     18410     18412     18414     18413     18415
     18417     18416     18418     18420     18419     18421     18423     18422     18424
     18426     18425     18427     18429     18428     18430     18432     18431     18433
     18435     18434     18436     18438     18437     18439     18441     18440     18442
     18444     18443     18445     18447     18446     18448     18450     18449     18451
     18453     18452     18454     18456     18455     18457     18459     18458     18460
     18462     18461     18463     18465     18464     18466     18468     18467     18469
     18471     18470     18472     18474     18473     18475     18477     18476     18478
     18480     18479     18481     18483     18482     18484     18486     18485     18487
     18489     18488     18490     18492     18491     18493     18495     18494     18496
     18498     18497     18499     18501     18500     18502     18504     18503     18505
     18507     18506     18508     18510     18509     18511     18513     18512     18514
     18516     18515     18517     18519     18518     18520     18522     18521     18523
     18525     18524     18526     18528     18527     18529     18531     18530     18532
     18534     18533     18535     18537     18536     18538     18540     18539     18541
     18543     18542     18544     18546     18545     18547     18549     18548     18550
     18552     18551     18553     18555     18554     18556     18558     18557     18559
     18561     18560     18562     18564     18563     18565     18567     18566     18568
     18570     18569     18571     18573     18572     18574     18576     18575     18577
     18579     18578     18580     18582     18581     18583     18585     18584     18586
     18588     18587     18589     18591     18590     18592     18594     18593     18595
     18597     18596     18598     18600     18599     18601     18603     18602     18604
     18606     18605     18607     18609     18608     18610     18612     18611     18613
     18615     18614     18616     18618     18617     18619     18621     18620     18622
     18624     18623     18625     18627     18626     18628     18630     18629     18631
     18633     18632     18634     18636     18635     18637     18639     18638     18640
     18642     18641     18643     18645     18644     18646     18648     18647     18649
     18651     18650     18652     18654     18653     18655     18657     18656     18658
     18660     18659     18661     18663     18662     18664     18666     18665     18667
     18669     18668     18670     18672     18671     18673     18675     18674     18676
     18678     18677     18679     18681     18680     18682     18684     18683     18685
     18687     18686     18688     18690     18689     18691     18693     18692     18694
     18696     18695     18697     18699     18698     18700     18702     18701     18703
     18705     18704     18706     18708     18707     18709     18711     18710     18712
     18714     18713     18715     18717     18716     18718     18720     18719     18721
     18723     18722     18724     18726     18725     18727     18729     18728     18730
     18732     18731     18733     18735     18734     18736     18738     18737     18739
     18741     18740     18742     18744     18743     18745     18747     18746     18748
     18750     18749     18751     18753     18752     18754     18756     18755     18757
     18759     18758     18760     18762     18761     18763     18765     18764     18766
     18768     18767     18769     18771     18770     18772     18774     18773     18775
     18777     18776     18778     18780     18779     18781     18783     18782     18784
     18786     18785     18787     18789     18788     18790     18792     18791     18793
     18795     18794     18796     18798     18797     18799     18801     18800     18802
     18804     18803     18805     18807     18806     18808     18810     18809     18811
     18813     18812     18814     18816     18815     18817     18819     18818     18820
     18822     18821     18823     18825     18824     18826     18828     18827     18829
     18831     18830     18832     18834     18833     18835     18837     18836     18838
     18840     18839     18841     18843     18842     18844     18846     18845     18847
     18849     18848     18850     18852     18851     18853     18855     18854     18856
     18858     18857     18859     18861     18860     18862     18864     18863     18865
     18867     18866     18868     18870     18869     18871     18873     18872     18874
     18876     18875     18877     18879     18878     18880     18882     18881     18883
     18885     18884     18886     18888     18887     18889     18891     18890     18892
     18894     18893     18895     18897     18896     18898     18900     18899     18901
     18903     18902     18904     18906     18905     18907     18909     18908     18910
     18912     18911     18913     18915     18914     18916     18918     18917     18919
     18921     18920     18922     18924     18923     18925     18927     18926     18928
     18930     18929     18931     18933     18932     18934     18936     18935     18937
     18939     18938     18940     18942     18941     18943     18945     18944     18946
     18948     18947     18949     18951     18950     18952     18954     18953     18955
     18957     18956     18958     18960     18959     18961     18963     18962     18964
     18966     18965     18967     18969     18968     18970     18972     18971     18973
     18975     18974     18976     18978     18977     18979     18981     18980     18982
     18984     18983     18985     18987     18986     18988     18990     18989     18991
     18993     18992     18994     18996     18995     18997     18999     18998     19000
     19002     19001     19003     19005     19004     19006     19008     19007     19009
     19011     19010     19012     19014     19013     19015     19017     19016     19018
     19020     19019     19021     19023     19022     19024     19026     19025     19027
     19029     19028     19030     19032     19031     19033     19035     19034     19036
     19038     19037     19039     19041     19040     19042     19044     19043     19045
     19047     19046     19048     19050     19049     19051     19053     19052     19054
     19056     19055     19057     19059     19058     19060     19062     19061     19063
     19065     19064     19066     19068     19067     19069     19071     19070     19072
     19074     19073     19075     19077     19076     19078     19080     19079     19081
     19083     19082     19084     19086     19085     19087     19089     19088     19090
     19092     19091     19093     19095     19094     19096     19098     19097     19099
     19101     19100     19102     19104     19103     19105     19107     19106     19108
     19110     19109     19111     19113     19112     19114     19116     19115     19117
     19119     19118     19120     19122     19121     19123     19125     19124     19126
     19128     19127     19129     19131     19130     19132     19134     19133     19135
     19137     19136     19138     19140     19139     19141     19143     19142     19144
     19146     19145     19147     19149     19148     19150     19152     19151     19153
     19155     19154     19156     19158     19157     19159     19161     19160     19162
     19164     19163     19165     19167     19166     19168     19170     19169     19171
     19173     19172     19174     19176     19175     19177     19179     19178     19180
     19182     19181     19183     19185     19184     19186     19188     19187     19189
     19191     19190     19192     19194     19193     19195     19197     19196     19198
     19200     19199     19201     19203     19202     19204     19206     19205     19207
     19209     19208     19210     19212     19211     19213     19215     19214     19216
     19218     19217     19219     19221     19220     19222     19224     19223     19225
     19227     19226     19228     19230     19229     19231     19233     19232     19234
     19236     19235     19237     19239     19238     19240     19242     19241     19243
     19245     19244     19246     19248     19247     19249     19251     19250     19252
     19254     19253     19255     19257     19256     19258     19260     19259     19261
     19263     19262     19264     19266     19265     19267     19269     19268     19270
     19272     19271     19273     19275     19274     19276     19278     19277     19279
     19281     19280     19282     19284     19283     19285     19287     19286     19288
     19290     19289     19291     19293     19292     19294     19296     19295     19297
     19299     19298     19300     19302     19301     19303     19305     19304     19306
     19308     19307     19309     19311     19310     19312     19314     19313     19315
     19317     19316     19318     19320     19319     19321     19323     19322     19324
     19326     19325     19327     19329     19328     19330     19332     19331     19333
     19335     19334     19336     19338     19337     19339     19341     19340     19342
     19344     19343     19345     19347     19346     19348     19350     19349     19351
     19353     19352     19354     19356     19355     19357     19359     19358     19360
     19362     19361     19363     19365     19364     19366     19368     19367     19369
     19371     19370     19372     19374     19373     19375     19377     19376     19378
     19380     19379     19381     19383     19382     19384     19386     19385     19387
     19389     19388     19390     19392     19391     19393     19395     19394     19396
     19398     19397     19399     19401     19400     19402     19404     19403     19405
     19407     19406     19408     19410     19409     19411     19413     19412     19414
     19416     19415     19417     19419     19418     19420     19422     19421     19423
     19425     19424     19426     19428     19427     19429     19431     19430     19432
     19434     19433     19435     19437     19436     19438     19440     19439     19441
     19443     19442     19444     19446     19445     19447     19449     19448     19450
     19452     19451     19453     19455     19454     19456     19458     19457     19459
     19461     19460     19462     19464     19463     19465     19467     19466     19468
     19470     19469     19471     19473     19472     19474     19476     19475     19477
     19479     19478     19480     19482     19481     19483     19485     19484     19486
     19488     19487     19489     19491     19490     19492     19494     19493     19495
     19497     19496     19498     19500     19499     19501     19503     19502     19504
     19506     19505     19507     19509     19508     19510     19512     19511     19513
     19515     19514     19516     19518     19517     19519     19521     19520     19522
     19524     19523     19525     19527     19526     19528     19530     19529     19531
     19533     19532     19534     19536     19535     19537     19539     19538     19540
     19542     19541     19543     19545     19544     19546     19548     19547     19549
     19551     19550     19552     19554     19553     19555     19557     19556     19558
     19560     19559     19561     19563     19562     19564     19566     19565     19567
     19569     19568     19570     19572     19571     19573     19575     19574     19576
     19578     19577     19579     19581     19580     19582     19584     19583     19585
     19587     19586     19588     19590     19589     19591     19593     19592     19594
     19596     19595     19597     19599     19598     19600     19602     19601     19603
     19605     19604     19606     19608     19607     19609     19611     19610     19612
     19614     19613     19615     19617     19616     19618     19620     19619     19621
     19623     19622     19624     19626     19625     19627     19629     19628     19630
     19632     19631     19633     19635     19634     19636     19638     19637     19639
     19641     19640     19642     19644     19643     19645     19647     19646     19648
     19650     19649     19651     19653     19652     19654     19656     19655     19657
     19659     19658     19660     19662     19661     19663     19665     19664     19666
     19668     19667     19669     19671     19670     19672     19674     19673     19675
     19677     19676     19678     19680     19679     19681     19683     19682     19684
     19686     19685     19687     19689     19688     19690     19692     19691     19693
     19695     19694     19696     19698     19697     19699     19701     19700     19702
     19704     19703     19705     19707     19706     19708     19710     19709     19711
     19713     19712     19714     19716     19715     19717     19719     19718     19720
     19722     19721     19723     19725     19724     19726     19728     19727     19729
     19731     19730     19732     19734     19733     19735     19737     19736     19738
     19740     19739     19741     19743     19742     19744     19746     19745     19747
     19749     19748     19750     19752     19751     19753     19755     19754     19756
     19758     19757     19759     19761     19760     19762     19764     19763     19765
     19767     19766     19768     19770     19769     19771     19773     19772     19774
     19776     19775     19777     19779     19778     19780     19782     19781     19783
     19785     19784     19786     19788     19787     19789     19791     19790     19792
     19794     19793     19795     19797     19796     19798     19800     19799     19801
     19803     19802     19804     19806     19805     19807     19809     19808     19810
     19812     19811     19813     19815     19814     19816     19818     19817     19819
     19821     19820     19822     19824     19823     19825     19827     19826     19828
     19830     19829     19831     19833     19832     19834     19836     19835     19837
     19839     19838     19840     19842     19841     19843     19845     19844     19846
     19848     19847     19849     19851     19850     19852     19854     19853     19855
     19857     19856     19858     19860     19859     19861     19863     19862     19864
     19866     19865     19867     19869     19868     19870     19872     19871     19873
     19875     19874     19876     19878     19877     19879     19881     19880     19882
     19884     19883     19885     19887     19886     19888     19890     19889     19891
     19893     19892     19894     19896     19895     19897     19899     19898     19900
     19902     19901     19903     19905     19904     19906     19908     19907     19909
     19911     19910     19912     19914     19913     19915     19917     19916     19918
     19920     19919     19921     19923     19922     19924     19926     19925     19927
     19929     19928     19930     19932     19931     19933     19935     19934     19936
     19938     19937     19939     19941     19940     19942     19944     19943     19945
     19947     19946     19948     19950     19949     19951     19953     19952     19954
     19956     19955     19957     19959     19958     19960     19962     19961     19963
     19965     19964     19966     19968     19967     19969     19971     19970     19972
     19974     19973     19975     19977     19976     19978     19980     19979     19981
     19983     19982     19984     19986     19985     19987     19989     19988     19990
     19992     19991     19993     19995     19994     19996     19998     19997     19999
     20001     20000     20002     20004     20003     20005     20007     20006     20008
     20010     20009     20011     20013     20012     20014     20016     20015     20017
     20019     20018     20020     20022     20021     20023     20025     20024     20026
     20028     20027     20029     20031     20030     20032     20034     20033     20035
     20037     20036     20038     20040     20039     20041     20043     20042     20044
     20046     20045     20047     20049     20048     20050     20052     20051     20053
     20055     20054     20056     20058     20057     20059     20061     20060     20062
     20064     20063     20065     20067     20066     20068     20070     20069     20071
     20073     20072     20074     20076     20075     20077     20079     20078     20080
     20082     20081     20083     20085     20084     20086     20088     20087     20089
     20091     20090     20092     20094     20093     20095     20097     20096     20098
     20100     20099     20101     20103     20102     20104     20106     20105     20107
     20109     20108     20110     20112     20111     20113     20115     20114     20116
     20118     20117     20119     20121     20120     20122     20124     20123     20125
     20127     20126     20128     20130     20129     20131     20133     20132     20134
     20136     20135     20137     20139     20138     20140     20142     20141     20143
     20145     20144     20146     20148     20147     20149     20151     20150     20152
     20154     20153     20155     20157     20156     20158     20160     20159     20161
     20163     20162     20164     20166     20165     20167     20169     20168     20170
     20172     20171     20173     20175     20174     20176     20178     20177     20179
     20181     20180     20182     20184     20183     20185     20187     20186     20188
     20190     20189     20191     20193     20192     20194     20196     20195     20197
     20199     20198     20200     20202     20201     20203     20205     20204     20206
     20208     20207     20209     20211     20210     20212     20214     20213     20215
     20217     20216     20218     20220     20219     20221     20223     20222     20224
     20226     20225     20227     20229     20228     20230     20232     20231     20233
     20235     20234     20236     20238     20237     20239     20241     20240     20242
     20244     20243     20245     20247     20246     20248     20250     20249     20251
     20253     20252     20254     20256     20255     20257     20259     20258     20260
     20262     20261     20263     20265     20264     20266     20268     20267     20269
     20271     20270     20272     20274     20273     20275     20277     20276     20278
     20280     20279     20281     20283     20282     20284     20286     20285     20287
     20289     20288     20290     20292     20291     20293     20295     20294     20296
     20298     20297     20299     20301     20300     20302     20304     20303     20305
     20307     20306     20308     20310     20309     20311     20313     20312     20314
     20316     20315     20317     20319     20318     20320     20322     20321     20323
     20325     20324     20326     20328     20327     20329     20331     20330     20332
     20334     20333     20335     20337     20336     20338     20340     20339     20341
     20343     20342     20344     20346     20345     20347     20349     20348     20350
     20352     20351     20353     20355     20354     20356     20358     20357     20359
     20361     20360     20362     20364     20363     20365     20367     20366     20368
     20370     20369     20371     20373     20372     20374     20376     20375     20377
     20379     20378     20380     20382     20381     20383     20385     20384     20386
     20388     20387     20389     20391     20390     20392     20394     20393     20395
     20397     20396     20398     20400     20399     20401     20403     20402     20404
     20406     20405     20407     20409     20408     20410     20412     20411     20413
     20415     20414     20416     20418     20417     20419     20421     20420     20422
     20424     20423     20425     20427     20426     20428     20430     20429     20431
     20433     20432     20434     20436     20435     20437     20439     20438     20440
     20442     20441     20443     20445     20444     20446     20448     20447     20449
     20451     20450     20452     20454     20453     20455     20457     20456     20458
     20460     20459     20461     20463     20462     20464     20466     20465     20467
     20469     20468     20470     20472     20471     20473     20475     20474     20476
     20478     20477     20479     20481     20480     20482     20484     20483     20485
     20487     20486     20488     20490     20489     20491     20493     20492     20494
     20496     20495     20497     20499     20498     20500     20502     20501     20503
     20505     20504     20506     20508     20507     20509     20511     20510     20512
     20514     20513     20515     20517     20516     20518     20520     20519     20521
     20523     20522     20524     20526     20525     20527     20529     20528     20530
     20532     20531     20533     20535     20534     20536     20538     20537     20539
     20541     20540     20542     20544     20543     20545     20547     20546     20548
     20550     20549     20551     20553     20552     20554     20556     20555     20557
     20559     20558     20560     20562     20561     20563     20565     20564     20566
     20568     20567     20569     20571     20570     20572     20574     20573     20575
     20577     20576     20578     20580     20579     20581     20583     20582     20584
     20586     20585     20587     20589     20588     20590     20592     20591     20593
     20595     20594     20596     20598     20597     20599     20601     20600     20602
     20604     20603     20605     20607     20606     20608     20610     20609     20611
     20613     20612     20614     20616     20615     20617     20619     20618     20620
     20622     20621     20623     20625     20624     20626     20628     20627     20629
     20631     20630     20632     20634     20633     20635     20637     20636     20638
     20640     20639     20641     20643     20642     20644     20646     20645     20647
     20649     20648     20650     20652     20651     20653     20655     20654     20656
     20658     20657     20659     20661     20660     20662     20664     20663     20665
     20667     20666     20668     20670     20669     20671     20673     20672     20674
     20676     20675     20677     20679     20678     20680     20682     20681     20683
     20685     20684     20686     20688     20687     20689     20691     20690     20692
     20694     20693     20695     20697     20696     20698     20700     20699     20701
     20703     20702     20704     20706     20705     20707     20709     20708     20710
     20712     20711     20713     20715     20714     20716     20718     20717     20719
     20721     20720     20722     20724     20723     20725     20727     20726     20728
     20730     20729     20731     20733     20732     20734     20736     20735     20737
     20739     20738     20740     20742     20741     20743     20745     20744     20746
     20748     20747     20749     20751     20750     20752     20754     20753     20755
     20757     20756     20758     20760     20759     20761     20763     20762     20764
     20766     20765     20767     20769     20768     20770     20772     20771     20773
     20775     20774     20776     20778     20777     20779     20781     20780     20782
     20784     20783     20785     20787     20786     20788     20790     20789     20791
     20793     20792     20794     20796     20795     20797     20799     20798     20800
     20802     20801     20803     20805     20804     20806     20808     20807     20809
     20811     20810     20812     20814     20813     20815     20817     20816     20818
     20820     20819     20821     20823     20822     20824     20826     20825     20827
     20829     20828     20830     20832     20831     20833     20835     20834     20836
     20838     20837     20839     20841     20840     20842     20844     20843     20845
     20847     20846     20848     20850     20849     20851     20853     20852     20854
     20856     20855     20857     20859     20858     20860     20862     20861     20863
     20865     20864     20866     20868     20867     20869     20871     20870     20872
     20874     20873     20875     20877     20876     20878     20880     20879     20881
     20883     20882     20884     20886     20885     20887     20889     20888     20890
     20892     20891     20893     20895     20894     20896     20898     20897     20899
     20901     20900     20902     20904     20903     20905     20907     20906     20908
     20910     20909     20911     20913     20912     20914     20916     20915     20917
     20919     20918     20920     20922     20921     20923     20925     20924     20926
     20928     20927     20929     20931     20930     20932     20934     20933     20935
     20937     20936     20938     20940     20939     20941     20943     20942     20944
     20946     20945     20947     20949     20948     20950     20952     20951     20953
     20955     20954     20956     20958     20957     20959     20961     20960     20962
     20964     20963     20965     20967     20966     20968     20970     20969     20971
     20973     20972     20974     20976     20975     20977     20979     20978     20980
     20982     20981     20983     20985     20984     20986     20988     20987     20989
     20991     20990     20992     20994     20993     20995     20997     20996     20998
     21000     20999     21001     21003     21002     21004     21006     21005     21007
     21009     21008     21010     21012     21011     21013     21015     21014     21016
     21018     21017     21019     21021     21020     21022     21024     21023     21025
     21027     21026     21028     21030     21029     21031     21033     21032     21034
     21036     21035     21037     21039     21038     21040     21042     21041     21043
     21045     21044     21046     21048     21047     21049     21051     21050     21052
     21054     21053     21055     21057     21056     21058     21060     21059     21061
     21063     21062     21064     21066     21065     21067     21069     21068     21070
     21072     21071     21073     21075     21074     21076     21078     21077     21079
     21081     21080     21082     21084     21083     21085     21087     21086     21088
     21090     21089     21091     21093     21092     21094     21096     21095     21097
     21099     21098     21100     21102     21101     21103     21105     21104     21106
     21108     21107     21109     21111     21110     21112     21114     21113     21115
     21117     21116     21118     21120     21119     21121     21123     21122     21124
     21126     21125     21127     21129     21128     21130     21132     21131     21133
     21135     21134     21136     21138     21137     21139     21141     21140     21142
     21144     21143     21145     21147     21146     21148     21150     21149     21151
     21153     21152     21154     21156     21155     21157     21159     21158     21160
     21162     21161     21163     21165     21164     21166     21168     21167     21169
     21171     21170     21172     21174     21173     21175     21177     21176     21178
     21180     21179     21181     21183     21182     21184     21186     21185     21187
     21189     21188     21190     21192     21191     21193     21195     21194     21196
     21198     21197     21199     21201     21200     21202     21204     21203     21205
     21207     21206     21208     21210     21209     21211     21213     21212     21214
     21216     21215     21217     21219     21218     21220     21222     21221     21223
     21225     21224     21226     21228     21227     21229     21231     21230     21232
     21234     21233     21235     21237     21236     21238     21240     21239     21241
     21243     21242     21244     21246     21245     21247     21249     21248     21250
     21252     21251     21253     21255     21254     21256     21258     21257     21259
     21261     21260     21262     21264     21263     21265     21267     21266     21268
     21270     21269     21271     21273     21272     21274     21276     21275     21277
     21279     21278     21280     21282     21281     21283     21285     21284     21286
     21288     21287     21289     21291     21290     21292     21294     21293     21295
     21297     21296     21298     21300     21299     21301     21303     21302     21304
     21306     21305     21307     21309     21308     21310     21312     21311     21313
     21315     21314     21316     21318     21317     21319     21321     21320     21322
     21324     21323     21325     21327     21326     21328     21330     21329     21331
     21333     21332     21334     21336     21335     21337     21339     21338     21340
     21342     21341     21343     21345     21344     21346     21348     21347     21349
     21351     21350     21352     21354     21353     21355     21357     21356     21358
     21360     21359     21361     21363     21362     21364     21366     21365     21367
     21369     21368     21370     21372     21371     21373     21375     21374     21376
     21378     21377     21379     21381     21380     21382     21384     21383     21385
     21387     21386     21388     21390     21389     21391     21393     21392     21394
     21396     21395     21397     21399     21398     21400     21402     21401     21403
     21405     21404     21406     21408     21407     21409     21411     21410     21412
     21414     21413     21415     21417     21416     21418     21420     21419     21421
     21423     21422     21424     21426     21425     21427     21429     21428     21430
     21432     21431     21433     21435     21434     21436     21438     21437     21439
     21441     21440     21442     21444     21443     21445     21447     21446     21448
     21450     21449     21451     21453     21452     21454     21456     21455     21457
     21459     21458     21460     21462     21461     21463     21465     21464     21466
     21468     21467     21469     21471     21470     21472     21474     21473     21475
     21477     21476     21478     21480     21479     21481     21483     21482     21484
     21486     21485     21487     21489     21488     21490     21492     21491     21493
     21495     21494     21496     21498     21497     21499     21501     21500     21502
     21504     21503     21505     21507     21506     21508     21510     21509     21511
     21513     21512     21514     21516     21515     21517     21519     21518     21520
     21522     21521     21523     21525     21524     21526     21528     21527     21529
     21531     21530     21532     21534     21533     21535     21537     21536     21538
     21540     21539     21541     21543     21542     21544     21546     21545     21547
     21549     21548     21550     21552     21551     21553     21555     21554     21556
     21558     21557     21559     21561     21560     21562     21564     21563     21565
     21567     21566     21568     21570     21569     21571     21573     21572     21574
     21576     21575     21577     21579     21578     21580     21582     21581     21583
     21585     21584     21586     21588     21587     21589     21591     21590     21592
     21594     21593     21595     21597     21596     21598     21600     21599     21601
     21603     21602     21604     21606     21605     21607     21609     21608     21610
     21612     21611     21613     21615     21614     21616     21618     21617     21619
     21621     21620     21622     21624     21623     21625     21627     21626     21628
     21630     21629     21631     21633     21632     21634     21636     21635     21637
     21639     21638     21640     21642     21641     21643     21645     21644     21646
     21648     21647     21649     21651     21650     21652     21654     21653     21655
     21657     21656     21658     21660     21659     21661     21663     21662     21664
     21666     21665     21667     21669     21668     21670     21672     21671     21673
     21675     21674     21676     21678     21677     21679     21681     21680     21682
     21684     21683     21685     21687     21686     21688     21690     21689     21691
     21693     21692     21694     21696     21695     21697     21699     21698     21700
     21702     21701     21703     21705     21704     21706     21708     21707     21709
     21711     21710     21712     21714     21713     21715     21717     21716     21718
     21720     21719     21721     21723     21722     21724     21726     21725     21727
     21729     21728     21730     21732     21731     21733     21735     21734     21736
     21738     21737     21739     21741     21740     21742     21744     21743     21745
     21747     21746     21748     21750     21749     21751     21753     21752     21754
     21756     21755     21757     21759     21758     21760     21762     21761     21763
     21765     21764     21766     21768     21767     21769     21771     21770     21772
     21774     21773     21775     21777     21776     21778     21780     21779     21781
     21783     21782     21784     21786     21785     21787     21789     21788     21790
     21792     21791     21793     21795     21794     21796     21798     21797     21799
     21801     21800     21802     21804     21803     21805     21807     21806     21808
     21810     21809     21811     21813     21812     21814     21816     21815     21817
     21819     21818     21820     21822     21821     21823     21825     21824     21826
     21828     21827     21829     21831     21830     21832     21834     21833     21835
     21837     21836     21838     21840     21839     21841     21843     21842     21844
     21846     21845     21847     21849     21848     21850     21852     21851     21853
     21855     21854     21856     21858     21857     21859     21861     21860     21862
     21864     21863     21865     21867     21866     21868     21870     21869     21871
     21873     21872     21874     21876     21875     21877     21879     21878     21880
     21882     21881     21883     21885     21884     21886     21888     21887     21889
     21891     21890     21892     21894     21893     21895     21897     21896     21898
     21900     21899     21901     21903     21902     21904     21906     21905     21907
     21909     21908     21910     21912     21911     21913     21915     21914     21916
     21918     21917     21919     21921     21920     21922     21924     21923     21925
     21927     21926     21928     21930     21929     21931     21933     21932     21934
     21936     21935     21937     21939     21938     21940     21942     21941     21943
     21945     21944     21946     21948     21947     21949     21951     21950     21952
     21954     21953     21955     21957     21956     21958     21960     21959     21961
     21963     21962     21964     21966     21965     21967     21969     21968     21970
     21972     21971     21973     21975     21974     21976     21978     21977     21979
     21981     21980     21982     21984     21983     21985     21987     21986     21988
     21990     21989     21991     21993     21992     21994     21996     21995     21997
     21999     21998     22000     22002     22001     22003     22005     22004     22006
     22008     22007     22009     22011     22010     22012     22014     22013     22015
     22017     22016     22018     22020     22019     22021     22023     22022     22024
     22026     22025     22027     22029     22028     22030     22032     22031     22033
     22035     22034     22036     22038     22037     22039     22041     22040     22042
     22044     22043     22045     22047     22046     22048     22050     22049     22051
     22053     22052     22054     22056     22055     22057     22059     22058     22060
     22062     22061     22063     22065     22064     22066     22068     22067     22069
     22071     22070     22072     22074     22073     22075     22077     22076     22078
     22080     22079     22081     22083     22082     22084     22086     22085     22087
     22089     22088     22090     22092     22091     22093     22095     22094     22096
     22098     22097     22099     22101     22100     22102     22104     22103     22105
     22107     22106     22108     22110     22109     22111     22113     22112     22114
     22116     22115     22117     22119     22118     22120     22122     22121     22123
     22125     22124     22126     22128     22127     22129     22131     22130     22132
     22134     22133     22135     22137     22136     22138     22140     22139     22141
     22143     22142     22144     22146     22145     22147     22149     22148     22150
     22152     22151     22153     22155     22154     22156     22158     22157     22159
     22161     22160     22162     22164     22163     22165     22167     22166     22168
     22170     22169     22171     22173     22172     22174     22176     22175     22177
     22179     22178     22180     22182     22181     22183     22185     22184     22186
     22188     22187     22189     22191     22190     22192     22194     22193     22195
     22197     22196     22198     22200     22199     22201     22203     22202     22204
     22206     22205     22207     22209     22208     22210     22212     22211     22213
     22215     22214     22216     22218     22217     22219     22221     22220     22222
     22224     22223     22225     22227     22226     22228     22230     22229     22231
     22233     22232     22234     22236     22235     22237     22239     22238     22240
     22242     22241     22243     22245     22244     22246     22248     22247     22249
     22251     22250     22252     22254     22253     22255     22257     22256     22258
     22260     22259     22261     22263     22262     22264     22266     22265     22267
     22269     22268     22270     22272     22271     22273     22275     22274     22276
     22278     22277     22279     22281     22280     22282     22284     22283     22285
     22287     22286     22288     22290     22289     22291     22293     22292     22294
     22296     22295     22297     22299     22298     22300     22302     22301     22303
     22305     22304     22306     22308     22307     22309     22311     22310     22312
     22314     22313     22315     22317     22316     22318     22320     22319     22321
     22323     22322     22324     22326     22325     22327     22329     22328     22330
     22332     22331     22333     22335     22334     22336     22338     22337     22339
     22341     22340     22342     22344     22343     22345     22347     22346     22348
     22350     22349     22351     22353     22352     22354     22356     22355     22357
     22359     22358     22360     22362     22361     22363     22365     22364     22366
     22368     22367     22369     22371     22370     22372     22374     22373     22375
     22377     22376     22378     22380     22379     22381     22383     22382     22384
     22386     22385     22387     22389     22388     22390     22392     22391     22393
     22395     22394     22396     22398     22397     22399     22401     22400     22402
     22404     22403     22405     22407     22406     22408     22410     22409     22411
     22413     22412     22414     22416     22415     22417     22419     22418     22420
     22422     22421     22423     22425     22424     22426     22428     22427     22429
     22431     22430     22432     22434     22433     22435     22437     22436     22438
     22440     22439     22441     22443     22442     22444     22446     22445     22447
     22449     22448     22450     22452     22451     22453     22455     22454     22456
     22458     22457     22459     22461     22460     22462     22464     22463     22465
     22467     22466     22468     22470     22469     22471     22473     22472     22474
     22476     22475     22477     22479     22478     22480     22482     22481     22483
     22485     22484     22486     22488     22487     22489     22491     22490     22492
     22494     22493     22495     22497     22496     22498     22500     22499     22501
     22503     22502     22504     22506     22505     22507     22509     22508     22510
     22512     22511     22513     22515     22514     22516     22518     22517     22519
     22521     22520     22522     22524     22523     22525     22527     22526     22528
     22530     22529     22531     22533     22532     22534     22536     22535     22537
     22539     22538     22540     22542     22541     22543     22545     22544     22546
     22548     22547     22549     22551     22550     22552     22554     22553     22555
     22557     22556     22558     22560     22559     22561     22563     22562     22564
     22566     22565     22567     22569     22568     22570     22572     22571     22573
     22575     22574     22576     22578     22577     22579     22581     22580     22582
     22584     22583     22585     22587     22586     22588     22590     22589     22591
     22593     22592     22594     22596     22595     22597     22599     22598     22600
     22602     22601     22603     22605     22604     22606     22608     22607     22609
     22611     22610     22612     22614     22613     22615     22617     22616     22618
     22620     22619     22621     22623     22622     22624     22626     22625     22627
     22629     22628     22630     22632     22631     22633     22635     22634     22636
     22638     22637     22639     22641     22640     22642     22644     22643     22645
     22647     22646     22648     22650     22649     22651     22653     22652     22654
     22656     22655     22657     22659     22658     22660     22662     22661     22663
     22665     22664     22666     22668     22667     22669     22671     22670     22672
     22674     22673     22675     22677     22676     22678     22680     22679     22681
     22683     22682     22684     22686     22685     22687     22689     22688     22690
     22692     22691     22693     22695     22694     22696     22698     22697     22699
     22701     22700     22702     22704     22703     22705     22707     22706     22708
     22710     22709     22711     22713     22712     22714     22716     22715     22717
     22719     22718     22720     22722     22721     22723     22725     22724     22726
     22728     22727     22729     22731     22730     22732     22734     22733     22735
     22737     22736     22738     22740     22739     22741     22743     22742     22744
     22746     22745     22747     22749     22748     22750     22752     22751     22753
     22755     22754     22756     22758     22757     22759     22761     22760     22762
     22764     22763     22765     22767     22766     22768     22770     22769     22771
     22773     22772     22774     22776     22775     22777     22779     22778     22780
     22782     22781     22783     22785     22784     22786     22788     22787     22789
     22791     22790     22792     22794     22793     22795     22797     22796     22798
     22800     22799     22801     22803     22802     22804     22806     22805     22807
     22809     22808     22810     22812     22811     22813     22815     22814     22816
     22818     22817     22819     22821     22820     22822     22824     22823     22825
     22827     22826     22828     22830     22829     22831     22833     22832     22834
     22836     22835     22837     22839     22838     22840     22842     22841     22843
     22845     22844     22846     22848     22847     22849     22851     22850     22852
     22854     22853     22855     22857     22856     22858     22860     22859     22861
     22863     22862     22864     22866     22865     22867     22869     22868     22870
     22872     22871     22873     22875     22874     22876     22878     22877     22879
     22881     22880     22882     22884     22883     22885     22887     22886     22888
     22890     22889     22891     22893     22892     22894     22896     22895     22897
     22899     22898     22900     22902     22901     22903     22905     22904     22906
     22908     22907     22909     22911     22910     22912     22914     22913     22915
     22917     22916     22918     22920     22919     22921     22923     22922     22924
     22926     22925     22927     22929     22928     22930     22932     22931     22933
     22935     22934     22936     22938     22937     22939     22941     22940     22942
     22944     22943     22945     22947     22946     22948     22950     22949     22951
     22953     22952     22954     22956     22955     22957     22959     22958     22960
     22962     22961     22963     22965     22964     22966     22968     22967     22969
     22971     22970     22972     22974     22973     22975     22977     22976     22978
     22980     22979     22981     22983     22982     22984     22986     22985     22987
     22989     22988     22990     22992     22991     22993     22995     22994     22996
     22998     22997     22999     23001     23000     23002     23004     23003     23005
     23007     23006     23008     23010     23009     23011     23013     23012     23014
     23016     23015     23017     23019     23018     23020     23022     23021     23023
     23025     23024     23026     23028     23027     23029     23031     23030     23032
     23034     23033     23035     23037     23036     23038     23040     23039     23041
     23043     23042     23044     23046     23045     23047     23049     23048     23050
     23052     23051     23053     23055     23054     23056     23058     23057     23059
     23061     23060     23062     23064     23063     23065     23067     23066     23068
     23070     23069     23071     23073     23072     23074     23076     23075     23077
     23079     23078     23080     23082     23081     23083     23085     23084     23086
     23088     23087     23089     23091     23090     23092     23094     23093     23095
     23097     23096     23098     23100     23099     23101     23103     23102     23104
     23106     23105     23107     23109     23108     23110     23112     23111     23113
     23115     23114     23116     23118     23117     23119     23121     23120     23122
     23124     23123     23125     23127     23126     23128     23130     23129     23131
     23133     23132     23134     23136     23135     23137     23139     23138     23140
     23142     23141     23143     23145     23144     23146     23148     23147     23149
     23151     23150     23152     23154     23153     23155     23157     23156     23158
     23160     23159     23161     23163     23162     23164     23166     23165     23167
     23169     23168     23170     23172     23171     23173     23175     23174     23176
     23178     23177     23179     23181     23180     23182     23184     23183     23185
     23187     23186     23188     23190     23189     23191     23193     23192     23194
     23196     23195     23197     23199     23198     23200     23202     23201     23203
     23205     23204     23206     23208     23207     23209     23211     23210     23212
     23214     23213     23215     23217     23216     23218     23220     23219     23221
     23223     23222     23224     23226     23225     23227     23229     23228     23230
     23232     23231     23233     23235     23234     23236     23238     23237     23239
     23241     23240     23242     23244     23243     23245     23247     23246     23248
     23250     23249     23251     23253     23252     23254     23256     23255     23257
     23259     23258     23260     23262     23261     23263     23265     23264     23266
     23268     23267     23269     23271     23270     23272     23274     23273     23275
     23277     23276     23278     23280     23279     23281     23283     23282     23284
     23286     23285     23287     23289     23288     23290     23292     23291     23293
     23295     23294     23296     23298     23297     23299     23301     23300     23302
     23304     23303     23305     23307     23306     23308     23310     23309     23311
     23313     23312     23314     23316     23315     23317     23319     23318     23320
     23322     23321     23323     23325     23324     23326     23328     23327     23329
     23331     23330     23332     23334     23333     23335     23337     23336     23338
     23340     23339     23341     23343     23342     23344     23346     23345     23347
     23349     23348     23350     23352     23351     23353     23355     23354     23356
     23358     23357     23359     23361     23360     23362     23364     23363     23365
     23367     23366     23368     23370     23369     23371     23373     23372     23374
     23376     23375     23377     23379     23378     23380     23382     23381     23383
     23385     23384     23386     23388     23387     23389     23391     23390     23392
     23394     23393     23395     23397     23396     23398     23400     23399     23401
     23403     23402     23404     23406     23405     23407     23409     23408     23410
     23412     23411     23413     23415     23414     23416     23418     23417     23419
     23421     23420     23422     23424     23423     23425     23427     23426     23428
     23430     23429     23431     23433     23432     23434     23436     23435     23437
     23439     23438     23440     23442     23441     23443     23445     23444     23446
     23448     23447     23449     23451     23450     23452     23454     23453     23455
     23457     23456     23458     23460     23459     23461     23463     23462     23464
     23466     23465     23467     23469     23468     23470     23472     23471     23473
     23475     23474     23476     23478     23477     23479     23481     23480     23482
     23484     23483     23485     23487     23486     23488     23490     23489     23491
     23493     23492     23494     23496     23495     23497     23499     23498     23500
     23502     23501     23503     23505     23504     23506     23508     23507     23509
     23511     23510     23512     23514     23513     23515     23517     23516     23518
     23520     23519     23521     23523     23522     23524     23526     23525     23527
     23529     23528     23530     23532     23531     23533     23535     23534     23536
     23538     23537     23539     23541     23540     23542     23544     23543     23545
     23547     23546     23548     23550     23549     23551     23553     23552     23554
     23556     23555     23557     23559     23558     23560     23562     23561     23563
     23565     23564     23566     23568     23567     23569     23571     23570     23572
     23574     23573     23575     23577     23576     23578     23580     23579     23581
     23583     23582     23584     23586     23585     23587     23589     23588     23590
     23592     23591     23593     23595     23594     23596     23598     23597     23599
     23601     23600     23602     23604     23603     23605     23607     23606     23608
     23610     23609     23611     23613     23612     23614     23616     23615     23617
     23619     23618     23620     23622     23621     23623     23625     23624     23626
     23628     23627     23629     23631     23630     23632     23634     23633     23635
     23637     23636     23638     23640     23639     23641     23643     23642     23644
     23646     23645     23647     23649     23648     23650     23652     23651     23653
     23655     23654     23656     23658     23657     23659     23661     23660     23662
     23664     23663     23665     23667     23666     23668     23670     23669     23671
     23673     23672     23674     23676     23675     23677     23679     23678     23680
     23682     23681     23683     23685     23684     23686     23688     23687     23689
     23691     23690     23692     23694     23693     23695     23697     23696     23698
     23700     23699     23701     23703     23702     23704     23706     23705     23707
     23709     23708     23710     23712     23711     23713     23715     23714     23716
     23718     23717     23719     23721     23720     23722     23724     23723     23725
     23727     23726     23728     23730     23729     23731     23733     23732     23734
     23736     23735     23737     23739     23738     23740     23742     23741     23743
     23745     23744     23746     23748     23747     23749     23751     23750     23752
     23754     23753     23755     23757     23756     23758     23760     23759     23761
     23763     23762     23764     23766     23765     23767     23769     23768     23770
     23772     23771     23773     23775     23774     23776     23778     23777     23779
     23781     23780     23782     23784     23783     23785     23787     23786     23788
     23790     23789     23791     23793     23792     23794     23796     23795     23797
     23799     23798     23800     23802     23801     23803     23805     23804     23806
     23808     23807     23809     23811     23810     23812     23814     23813     23815
     23817     23816     23818     23820     23819     23821     23823     23822     23824
     23826     23825     23827     23829     23828     23830     23832     23831     23833
     23835     23834     23836     23838     23837     23839     23841     23840     23842
     23844     23843     23845     23847     23846     23848     23850     23849     23851
     23853     23852     23854     23856     23855     23857     23859     23858     23860
     23862     23861     23863     23865     23864     23866     23868     23867     23869
     23871     23870     23872     23874     23873     23875     23877     23876     23878
     23880     23879     23881     23883     23882     23884     23886     23885     23887
     23889     23888     23890     23892     23891     23893     23895     23894     23896
     23898     23897     23899     23901     23900     23902     23904     23903     23905
     23907     23906     23908     23910     23909     23911     23913     23912     23914
     23916     23915     23917     23919     23918     23920     23922     23921     23923
     23925     23924     23926     23928     23927     23929     23931     23930     23932
     23934     23933     23935     23937     23936     23938     23940     23939     23941
     23943     23942     23944     23946     23945     23947     23949     23948     23950
     23952     23951     23953     23955     23954     23956     23958     23957     23959
     23961     23960     23962     23964     23963     23965     23967     23966     23968
     23970     23969     23971     23973     23972     23974     23976     23975     23977
     23979     23978     23980     23982     23981     23983     23985     23984     23986
     23988     23987     23989     23991     23990     23992     23994     23993     23995
     23997     23996     23998     24000     23999     24001     24003     24002     24004
     24006     24005     24007     24009     24008     24010     24012     24011     24013
     24015     24014     24016     24018     24017     24019     24021     24020     24022
     24024     24023     24025     24027     24026     24028     24030     24029     24031
     24033     24032     24034     24036     24035     24037     24039     24038     24040
     24042     24041     24043     24045     24044     24046     24048     24047     24049
     24051     24050     24052     24054     24053     24055     24057     24056     24058
     24060     24059     24061     24063     24062     24064     24066     24065     24067
     24069     24068     24070     24072     24071     24073     24075     24074     24076
     24078     24077     24079     24081     24080     24082     24084     24083     24085
     24087     24086     24088     24090     24089     24091     24093     24092     24094
     24096     24095     24097     24099     24098     24100     24102     24101     24103
     24105     24104     24106     24108     24107     24109     24111     24110     24112
     24114     24113     24115     24117     24116     24118     24120     24119     24121
     24123     24122     24124     24126     24125     24127     24129     24128     24130
     24132     24131     24133     24135     24134     24136     24138     24137     24139
     24141     24140     24142     24144     24143     24145     24147     24146     24148
     24150     24149     24151     24153     24152     24154     24156     24155     24157
     24159     24158     24160     24162     24161     24163     24165     24164     24166
     24168     24167     24169     24171     24170     24172     24174     24173     24175
     24177     24176     24178     24180     24179     24181     24183     24182     24184
     24186     24185     24187     24189     24188     24190     24192     24191     24193
     24195     24194     24196     24198     24197     24199     24201     24200     24202
     24204     24203     24205     24207     24206     24208     24210     24209     24211
     24213     24212     24214     24216     24215     24217     24219     24218     24220
     24222     24221     24223     24225     24224     24226     24228     24227     24229
     24231     24230     24232     24234     24233     24235     24237     24236     24238
     24240     24239     24241     24243     24242     24244     24246     24245     24247
     24249     24248     24250     24252     24251     24253     24255     24254     24256
     24258     24257     24259     24261     24260     24262     24264     24263     24265
     24267     24266     24268     24270     24269     24271     24273     24272     24274
     24276     24275     24277     24279     24278     24280     24282     24281     24283
     24285     24284     24286     24288     24287     24289     24291     24290     24292
     24294     24293     24295     24297     24296     24298     24300     24299     24301
     24303     24302     24304     24306     24305     24307     24309     24308     24310
     24312     24311     24313     24315     24314     24316     24318     24317     24319
     24321     24320     24322     24324     24323     24325     24327     24326     24328
     24330     24329     24331     24333     24332     24334     24336     24335     24337
     24339     24338     24340     24342     24341     24343     24345     24344     24346
     24348     24347     24349     24351     24350     24352     24354     24353     24355
     24357     24356     24358     24360     24359     24361     24363     24362     24364
     24366     24365     24367     24369     24368     24370     24372     24371     24373
     24375     24374     24376     24378     24377     24379     24381     24380     24382
     24384     24383     24385     24387     24386     24388     24390     24389     24391
     24393     24392     24394     24396     24395     24397     24399     24398     24400
     24402     24401     24403     24405     24404     24406     24408     24407     24409
     24411     24410     24412     24414     24413     24415     24417     24416     24418
     24420     24419     24421     24423     24422     24424     24426     24425     24427
     24429     24428     24430     24432     24431     24433     24435     24434     24436
     24438     24437     24439     24441     24440     24442     24444     24443     24445
     24447     24446     24448     24450     24449     24451     24453     24452     24454
     24456     24455     24457     24459     24458     24460     24462     24461     24463
     24465     24464     24466     24468     24467     24469     24471     24470     24472
     24474     24473     24475     24477     24476     24478     24480     24479     24481
     24483     24482     24484     24486     24485     24487     24489     24488     24490
     24492     24491     24493     24495     24494     24496     24498     24497     24499
     24501     24500     24502     24504     24503     24505     24507     24506     24508
     24510     24509     24511     24513     24512     24514     24516     24515     24517
     24519     24518     24520     24522     24521     24523     24525     24524     24526
     24528     24527     24529     24531     24530     24532     24534     24533     24535
     24537     24536     24538     24540     24539     24541     24543     24542     24544
     24546     24545     24547     24549     24548     24550     24552     24551     24553
     24555     24554     24556     24558     24557     24559     24561     24560     24562
     24564     24563     24565     24567     24566     24568     24570     24569     24571
     24573     24572     24574     24576     24575     24577     24579     24578     24580
     24582     24581     24583     24585     24584     24586     24588     24587     24589
     24591     24590     24592     24594     24593     24595     24597     24596     24598
     24600     24599     24601     24603     24602     24604     24606     24605     24607
     24609     24608     24610     24612     24611     24613     24615     24614     24616
     24618     24617     24619     24621     24620     24622     24624     24623     24625
     24627     24626     24628     24630     24629     24631     24633     24632     24634
     24636     24635     24637     24639     24638     24640     24642     24641     24643
     24645     24644     24646     24648     24647     24649     24651     24650     24652
     24654     24653     24655     24657     24656     24658     24660     24659     24661
     24663     24662     24664     24666     24665     24667     24669     24668     24670
     24672     24671     24673     24675     24674     24676     24678     24677     24679
     24681     24680     24682     24684     24683     24685     24687     24686     24688
     24690     24689     24691     24693     24692     24694     24696     24695     24697
     24699     24698     24700     24702     24701     24703     24705     24704     24706
     24708     24707     24709     24711     24710     24712     24714     24713     24715
     24717     24716     24718     24720     24719     24721     24723     24722     24724
     24726     24725     24727     24729     24728     24730     24732     24731     24733
     24735     24734     24736     24738     24737     24739     24741     24740     24742
     24744     24743     24745     24747     24746     24748     24750     24749     24751
     24753     24752     24754     24756     24755     24757     24759     24758     24760
     24762     24761     24763     24765     24764     24766     24768     24767     24769
     24771     24770     24772     24774     24773     24775     24777     24776     24778
     24780     24779     24781     24783     24782     24784     24786     24785     24787
     24789     24788     24790     24792     24791     24793     24795     24794     24796
     24798     24797     24799     24801     24800     24802     24804     24803     24805
     24807     24806     24808     24810     24809     24811     24813     24812     24814
     24816     24815     24817     24819     24818     24820     24822     24821     24823
     24825     24824     24826     24828     24827     24829     24831     24830     24832
     24834     24833     24835     24837     24836     24838     24840     24839     24841
     24843     24842     24844     24846     24845     24847     24849     24848     24850
     24852     24851     24853     24855     24854     24856     24858     24857     24859
     24861     24860     24862     24864     24863     24865     24867     24866     24868
     24870     24869     24871     24873     24872     24874     24876     24875     24877
     24879     24878     24880     24882     24881     24883     24885     24884     24886
     24888     24887     24889     24891     24890     24892     24894     24893     24895
     24897     24896     24898     24900     24899     24901     24903     24902     24904
     24906     24905     24907     24909     24908     24910     24912     24911     24913
     24915     24914     24916     24918     24917     24919     24921     24920     24922
     24924     24923     24925     24927     24926     24928     24930     24929     24931
     24933     24932     24934     24936     24935     24937     24939     24938     24940
     24942     24941     24943     24945     24944     24946     24948     24947     24949
     24951     24950     24952     24954     24953     24955     24957     24956     24958
     24960     24959     24961     24963     24962     24964     24966     24965     24967
     24969     24968     24970     24972     24971     24973     24975     24974     24976
     24978     24977     24979     24981     24980     24982     24984     24983     24985
     24987     24986     24988     24990     24989     24991     24993     24992     24994
     24996     24995     24997     24999     24998     25000     25002     25001     25003
     25005     25004     25006     25008     25007     25009     25011     25010     25012
     25014     25013     25015     25017     25016     25018     25020     25019     25021
     25023     25022     25024     25026     25025     25027     25029     25028     25030
     25032     25031     25033     25035     25034     25036     25038     25037     25039
     25041     25040     25042     25044     25043     25045     25047     25046     25048
     25050     25049     25051     25053     25052     25054     25056     25055     25057
     25059     25058     25060     25062     25061     25063     25065     25064     25066
     25068     25067     25069     25071     25070     25072     25074     25073     25075
     25077     25076     25078     25080     25079     25081     25083     25082     25084
     25086     25085     25087     25089     25088     25090     25092     25091     25093
     25095     25094     25096     25098     25097     25099     25101     25100     25102
     25104     25103     25105     25107     25106     25108     25110     25109     25111
     25113     25112     25114     25116     25115     25117     25119     25118     25120
     25122     25121     25123     25125     25124     25126     25128     25127     25129
     25131     25130     25132     25134     25133     25135     25137     25136     25138
     25140     25139     25141     25143     25142     25144     25146     25145     25147
     25149     25148     25150     25152     25151     25153     25155     25154     25156
     25158     25157     25159     25161     25160     25162     25164     25163     25165
     25167     25166     25168     25170     25169     25171     25173     25172     25174
     25176     25175     25177     25179     25178     25180     25182     25181     25183
     25185     25184     25186     25188     25187     25189     25191     25190     25192
     25194     25193     25195     25197     25196     25198     25200     25199     25201
     25203     25202     25204     25206     25205     25207     25209     25208     25210
     25212     25211     25213     25215     25214     25216     25218     25217     25219
     25221     25220     25222     25224     25223     25225     25227     25226     25228
     25230     25229     25231     25233     25232     25234     25236     25235     25237
     25239     25238     25240     25242     25241     25243     25245     25244     25246
     25248     25247     25249     25251     25250     25252     25254     25253     25255
     25257     25256     25258     25260     25259     25261     25263     25262     25264
     25266     25265     25267     25269     25268     25270     25272     25271     25273
     25275     25274     25276     25278     25277     25279     25281     25280     25282
     25284     25283     25285     25287     25286     25288     25290     25289     25291
     25293     25292     25294     25296     25295     25297     25299     25298     25300
     25302     25301     25303     25305     25304     25306     25308     25307     25309
     25311     25310     25312     25314     25313     25315     25317     25316     25318
     25320     25319     25321     25323     25322     25324     25326     25325     25327
     25329     25328     25330     25332     25331     25333     25335     25334     25336
     25338     25337     25339     25341     25340     25342     25344     25343     25345
     25347     25346     25348     25350     25349     25351     25353     25352     25354
     25356     25355     25357     25359     25358     25360     25362     25361     25363
     25365     25364     25366     25368     25367     25369     25371     25370     25372
     25374     25373     25375     25377     25376     25378     25380     25379     25381
     25383     25382     25384     25386     25385     25387     25389     25388     25390
     25392     25391     25393     25395     25394     25396     25398     25397     25399
     25401     25400     25402     25404     25403     25405     25407     25406     25408
     25410     25409     25411     25413     25412     25414     25416     25415     25417
     25419     25418     25420     25422     25421     25423     25425     25424     25426
     25428     25427     25429     25431     25430     25432     25434     25433     25435
     25437     25436     25438     25440     25439     25441     25443     25442     25444
     25446     25445     25447     25449     25448     25450     25452     25451     25453
     25455     25454     25456     25458     25457     25459     25461     25460     25462
     25464     25463     25465     25467     25466     25468     25470     25469     25471
     25473     25472     25474     25476     25475     25477     25479     25478     25480
     25482     25481     25483     25485     25484     25486     25488     25487     25489
     25491     25490     25492     25494     25493     25495     25497     25496     25498
     25500     25499     25501     25503     25502     25504     25506     25505     25507
     25509     25508     25510     25512     25511     25513     25515     25514     25516
     25518     25517     25519     25521     25520     25522     25524     25523     25525
     25527     25526     25528     25530     25529     25531     25533     25532     25534
     25536     25535     25537     25539     25538     25540     25542     25541     25543
     25545     25544     25546     25548     25547     25549     25551     25550     25552
     25554     25553     25555     25557     25556     25558     25560     25559     25561
     25563     25562     25564     25566     25565     25567     25569     25568     25570
     25572     25571     25573     25575     25574     25576     25578     25577     25579
     25581     25580     25582     25584     25583     25585     25587     25586     25588
     25590     25589     25591     25593     25592     25594     25596     25595     25597
     25599     25598     25600     25602     25601     25603     25605     25604     25606
     25608     25607     25609     25611     25610     25612     25614     25613     25615
     25617     25616     25618     25620     25619     25621     25623     25622     25624
     25626     25625     25627     25629     25628     25630     25632     25631     25633
     25635     25634     25636     25638     25637     25639     25641     25640     25642
     25644     25643     25645     25647     25646     25648     25650     25649     25651
     25653     25652     25654     25656     25655     25657     25659     25658     25660
     25662     25661     25663     25665     25664     25666     25668     25667     25669
     25671     25670     25672     25674     25673     25675     25677     25676     25678
     25680     25679     25681     25683     25682     25684     25686     25685     25687
     25689     25688     25690     25692     25691     25693     25695     25694     25696
     25698     25697     25699     25701     25700     25702     25704     25703     25705
     25707     25706     25708     25710     25709     25711     25713     25712     25714
     25716     25715     25717     25719     25718     25720     25722     25721     25723
     25725     25724     25726     25728     25727     25729     25731     25730     25732
     25734     25733     25735     25737     25736     25738     25740     25739     25741
     25743     25742     25744     25746     25745     25747     25749     25748     25750
     25752     25751     25753     25755     25754     25756     25758     25757     25759
     25761     25760     25762     25764     25763     25765     25767     25766     25768
     25770     25769     25771     25773     25772     25774     25776     25775     25777
     25779     25778     25780     25782     25781     25783     25785     25784     25786
     25788     25787     25789     25791     25790     25792     25794     25793     25795
     25797     25796     25798     25800     25799     25801     25803     25802     25804
     25806     25805     25807     25809     25808     25810     25812     25811     25813
     25815     25814     25816     25818     25817     25819     25821     25820     25822
     25824     25823     25825     25827     25826     25828     25830     25829     25831
     25833     25832     25834     25836     25835     25837     25839     25838     25840
     25842     25841     25843     25845     25844     25846     25848     25847     25849
     25851     25850     25852     25854     25853     25855     25857     25856     25858
     25860     25859     25861     25863     25862     25864     25866     25865     25867
     25869     25868     25870     25872     25871     25873     25875     25874     25876
     25878     25877     25879     25881     25880     25882     25884     25883     25885
     25887     25886     25888     25890     25889     25891     25893     25892     25894
     25896     25895     25897     25899     25898     25900     25902     25901     25903
     25905     25904     25906     25908     25907     25909     25911     25910     25912
     25914     25913     25915     25917     25916     25918     25920     25919     25921
     25923     25922     25924     25926     25925     25927     25929     25928     25930
     25932     25931     25933     25935     25934     25936     25938     25937     25939
     25941     25940     25942     25944     25943     25945     25947     25946     25948
     25950     25949     25951     25953     25952     25954     25956     25955     25957
     25959     25958     25960     25962     25961     25963     25965     25964     25966
     25968     25967     25969     25971     25970     25972     25974     25973     25975
     25977     25976     25978     25980     25979     25981     25983     25982     25984
     25986     25985     25987     25989     25988     25990     25992     25991     25993
     25995     25994     25996     25998     25997     25999     26001     26000     26002
     26004     26003     26005     26007     26006     26008     26010     26009     26011
     26013     26012     26014     26016     26015     26017     26019     26018     26020
     26022     26021     26023     26025     26024     26026     26028     26027     26029
     26031     26030     26032     26034     26033     26035     26037     26036     26038
     26040     26039     26041     26043     26042     26044     26046     26045     26047
     26049     26048     26050     26052     26051     26053     26055     26054     26056
     26058     26057     26059     26061     26060     26062     26064     26063     26065
     26067     26066     26068     26070     26069     26071     26073     26072     26074
     26076     26075     26077     26079     26078     26080     26082     26081     26083
     26085     26084     26086     26088     26087     26089     26091     26090     26092
     26094     26093     26095     26097     26096     26098     26100     26099     26101
     26103     26102     26104     26106     26105     26107     26109     26108     26110
     26112     26111     26113     26115     26114     26116     26118     26117     26119
     26121     26120     26122     26124     26123     26125     26127     26126     26128
     26130     26129     26131     26133     26132     26134     26136     26135     26137
     26139     26138     26140     26142     26141     26143     26145     26144     26146
     26148     26147     26149     26151     26150     26152     26154     26153     26155
     26157     26156     26158     26160     26159     26161     26163     26162     26164
     26166     26165     26167     26169     26168     26170     26172     26171     26173
     26175     26174     26176     26178     26177     26179     26181     26180     26182
     26184     26183     26185     26187     26186     26188     26190     26189     26191
     26193     26192     26194     26196     26195     26197     26199     26198     26200
     26202     26201     26203     26205     26204     26206     26208     26207     26209
     26211     26210     26212     26214     26213     26215     26217     26216     26218
     26220     26219     26221     26223     26222     26224     26226     26225     26227
     26229     26228     26230     26232     26231     26233     26235     26234     26236
     26238     26237     26239     26241     26240     26242     26244     26243     26245
     26247     26246     26248     26250     26249     26251     26253     26252     26254
     26256     26255     26257     26259     26258     26260     26262     26261     26263
     26265     26264     26266     26268     26267     26269     26271     26270     26272
     26274     26273     26275     26277     26276     26278     26280     26279     26281
     26283     26282     26284     26286     26285     26287     26289     26288     26290
     26292     26291     26293     26295     26294     26296     26298     26297     26299
     26301     26300     26302     26304     26303     26305     26307     26306     26308
     26310     26309     26311     26313     26312     26314     26316     26315     26317
     26319     26318     26320     26322     26321     26323     26325     26324     26326
     26328     26327     26329     26331     26330     26332     26334     26333     26335
     26337     26336     26338     26340     26339     26341     26343     26342     26344
     26346     26345     26347     26349     26348     26350     26352     26351     26353
     26355     26354     26356     26358     26357     26359     26361     26360     26362
     26364     26363     26365     26367     26366     26368     26370     26369     26371
     26373     26372     26374     26376     26375     26377     26379     26378     26380
     26382     26381     26383     26385     26384     26386     26388     26387     26389
     26391     26390     26392     26394     26393     26395     26397     26396     26398
     26400     26399     26401     26403     26402     26404     26406     26405     26407
     26409     26408     26410     26412     26411     26413     26415     26414     26416
     26418     26417     26419     26421     26420     26422     26424     26423     26425
     26427     26426     26428     26430     26429     26431     26433     26432     26434
     26436     26435     26437     26439     26438     26440     26442     26441     26443
     26445     26444     26446     26448     26447     26449     26451     26450     26452
     26454     26453     26455     26457     26456     26458     26460     26459     26461
     26463     26462     26464     26466     26465     26467     26469     26468     26470
     26472     26471     26473     26475     26474     26476     26478     26477     26479
     26481     26480     26482     26484     26483     26485     26487     26486     26488
     26490     26489     26491     26493     26492     26494     26496     26495     26497
     26499     26498     26500     26502     26501     26503     26505     26504     26506
     26508     26507     26509     26511     26510     26512     26514     26513     26515
     26517     26516     26518     26520     26519     26521     26523     26522     26524
     26526     26525     26527     26529     26528     26530     26532     26531     26533
     26535     26534     26536     26538     26537     26539     26541     26540     26542
     26544     26543     26545     26547     26546     26548     26550     26549     26551
     26553     26552     26554     26556     26555     26557     26559     26558     26560
     26562     26561     26563     26565     26564     26566     26568     26567     26569
     26571     26570     26572     26574     26573     26575     26577     26576     26578
     26580     26579     26581     26583     26582     26584     26586     26585     26587
     26589     26588     26590     26592     26591     26593     26595     26594     26596
     26598     26597     26599     26601     26600     26602     26604     26603     26605
     26607     26606     26608     26610     26609     26611     26613     26612     26614
     26616     26615     26617     26619     26618     26620     26622     26621     26623
     26625     26624     26626     26628     26627     26629     26631     26630     26632
     26634     26633     26635     26637     26636     26638     26640     26639     26641
     26643     26642     26644     26646     26645     26647     26649     26648     26650
     26652     26651     26653     26655     26654     26656     26658     26657     26659
     26661     26660     26662     26664     26663     26665     26667     26666     26668
     26670     26669     26671     26673     26672     26674     26676     26675     26677
     26679     26678     26680     26682     26681     26683     26685     26684     26686
     26688     26687     26689     26691     26690     26692     26694     26693     26695
     26697     26696     26698     26700     26699     26701     26703     26702     26704
     26706     26705     26707     26709     26708     26710     26712     26711     26713
     26715     26714     26716     26718     26717     26719     26721     26720     26722
     26724     26723     26725     26727     26726     26728     26730     26729     26731
     26733     26732     26734     26736     26735     26737     26739     26738     26740
     26742     26741     26743     26745     26744     26746     26748     26747     26749
     26751     26750     26752     26754     26753     26755     26757     26756     26758
     26760     26759     26761     26763     26762     26764     26766     26765     26767
     26769     26768     26770     26772     26771     26773     26775     26774     26776
     26778     26777     26779     26781     26780     26782     26784     26783     26785
     26787     26786     26788     26790     26789     26791     26793     26792     26794
     26796     26795     26797     26799     26798     26800     26802     26801     26803
     26805     26804     26806     26808     26807     26809     26811     26810     26812
     26814     26813     26815     26817     26816     26818     26820     26819     26821
     26823     26822     26824     26826     26825     26827     26829     26828     26830
     26832     26831     26833     26835     26834     26836     26838     26837     26839
     26841     26840     26842     26844     26843     26845     26847     26846     26848
     26850     26849     26851     26853     26852     26854     26856     26855     26857
     26859     26858     26860     26862     26861     26863     26865     26864     26866
     26868     26867     26869     26871     26870     26872     26874     26873     26875
     26877     26876     26878     26880     26879     26881     26883     26882     26884
     26886     26885     26887     26889     26888     26890     26892     26891     26893
     26895     26894     26896     26898     26897     26899     26901     26900     26902
     26904     26903     26905     26907     26906     26908     26910     26909     26911
     26913     26912     26914     26916     26915     26917     26919     26918     26920
     26922     26921     26923     26925     26924     26926     26928     26927     26929
     26931     26930     26932     26934     26933     26935     26937     26936     26938
     26940     26939     26941     26943     26942     26944     26946     26945     26947
     26949     26948     26950     26952     26951     26953     26955     26954     26956
     26958     26957     26959     26961     26960     26962     26964     26963     26965
     26967     26966     26968     26970     26969     26971     26973     26972     26974
     26976     26975     26977     26979     26978     26980     26982     26981     26983
     26985     26984     26986     26988     26987     26989     26991     26990     26992
     26994     26993     26995     26997     26996     26998     27000     26999     27001
     27003     27002     27004     27006     27005     27007     27009     27008     27010
     27012     27011     27013     27015     27014     27016     27018     27017     27019
     27021     27020     27022     27024     27023     27025     27027     27026     27028
     27030     27029     27031     27033     27032     27034     27036     27035     27037
     27039     27038     27040     27042     27041     27043     27045     27044     27046
     27048     27047     27049     27051     27050     27052     27054     27053     27055
     27057     27056     27058     27060     27059     27061     27063     27062     27064
     27066     27065     27067     27069     27068     27070     27072     27071     27073
     27075     27074     27076     27078     27077     27079     27081     27080     27082
     27084     27083     27085     27087     27086     27088     27090     27089     27091
     27093     27092     27094     27096     27095     27097     27099     27098     27100
     27102     27101     27103     27105     27104     27106     27108     27107     27109
     27111     27110     27112     27114     27113     27115     27117     27116     27118
     27120     27119     27121     27123     27122     27124     27126     27125     27127
     27129     27128     27130     27132     27131     27133     27135     27134     27136
     27138     27137     27139     27141     27140     27142     27144     27143     27145
     27147     27146     27148     27150     27149     27151     27153     27152     27154
     27156     27155     27157     27159     27158     27160     27162     27161     27163
     27165     27164     27166     27168     27167     27169     27171     27170     27172
     27174     27173     27175     27177     27176     27178     27180     27179     27181
     27183     27182     27184     27186     27185     27187     27189     27188     27190
     27192     27191     27193     27195     27194     27196     27198     27197     27199
     27201     27200     27202     27204     27203     27205     27207     27206     27208
     27210     27209     27211     27213     27212     27214     27216     27215     27217
     27219     27218     27220     27222     27221     27223     27225     27224     27226
     27228     27227     27229     27231     27230     27232     27234     27233     27235
     27237     27236     27238     27240     27239     27241     27243     27242     27244
     27246     27245     27247     27249     27248     27250     27252     27251     27253
     27255     27254     27256     27258     27257     27259     27261     27260     27262
     27264     27263     27265     27267     27266     27268     27270     27269     27271
     27273     27272     27274     27276     27275     27277     27279     27278     27280
     27282     27281     27283     27285     27284     27286     27288     27287     27289
     27291     27290     27292     27294     27293     27295     27297     27296     27298
     27300     27299     27301     27303     27302     27304     27306     27305     27307
     27309     27308     27310     27312     27311     27313     27315     27314     27316
     27318     27317     27319     27321     27320     27322     27324     27323     27325
     27327     27326     27328     27330     27329     27331     27333     27332     27334
     27336     27335     27337     27339     27338     27340     27342     27341     27343
     27345     27344     27346     27348     27347     27349     27351     27350     27352
     27354     27353     27355     27357     27356     27358     27360     27359     27361
     27363     27362     27364     27366     27365     27367     27369     27368     27370
     27372     27371     27373     27375     27374     27376     27378     27377     27379
     27381     27380     27382     27384     27383     27385     27387     27386     27388
     27390     27389     27391     27393     27392     27394     27396     27395     27397
     27399     27398     27400     27402     27401     27403     27405     27404     27406
     27408     27407     27409     27411     27410     27412     27414     27413     27415
     27417     27416     27418     27420     27419     27421     27423     27422     27424
     27426     27425     27427     27429     27428     27430     27432     27431     27433
     27435     27434     27436     27438     27437     27439     27441     27440     27442
     27444     27443     27445     27447     27446     27448     27450     27449     27451
     27453     27452     27454     27456     27455     27457     27459     27458     27460
     27462     27461     27463     27465     27464     27466     27468     27467     27469
     27471     27470     27472     27474     27473     27475     27477     27476     27478
     27480     27479     27481     27483     27482     27484     27486     27485     27487
     27489     27488     27490     27492     27491     27493     27495     27494     27496
     27498     27497     27499     27501     27500     27502     27504     27503     27505
     27507     27506     27508     27510     27509     27511     27513     27512     27514
     27516     27515     27517     27519     27518     27520     27522     27521     27523
     27525     27524     27526     27528     27527     27529     27531     27530     27532
     27534     27533     27535     27537     27536     27538     27540     27539     27541
     27543     27542     27544     27546     27545     27547     27549     27548     27550
     27552     27551     27553     27555     27554     27556     27558     27557     27559
     27561     27560     27562     27564     27563     27565     27567     27566     27568
     27570     27569     27571     27573     27572     27574     27576     27575     27577
     27579     27578     27580     27582     27581     27583     27585     27584     27586
     27588     27587     27589     27591     27590     27592     27594     27593     27595
     27597     27596     27598     27600     27599     27601     27603     27602     27604
     27606     27605     27607     27609     27608     27610     27612     27611     27613
     27615     27614     27616     27618     27617     27619     27621     27620     27622
     27624     27623     27625     27627     27626     27628     27630     27629     27631
     27633     27632     27634     27636     27635     27637     27639     27638     27640
     27642     27641     27643     27645     27644     27646     27648     27647     27649
     27651     27650     27652     27654     27653     27655     27657     27656     27658
     27660     27659     27661     27663     27662     27664     27666     27665     27667
     27669     27668     27670     27672     27671     27673     27675     27674     27676
     27678     27677     27679     27681     27680     27682     27684     27683     27685
     27687     27686     27688     27690     27689     27691     27693     27692     27694
     27696     27695     27697     27699     27698     27700     27702     27701     27703
     27705     27704     27706     27708     27707     27709     27711     27710     27712
     27714     27713     27715     27717     27716     27718     27720     27719     27721
     27723     27722     27724     27726     27725     27727     27729     27728     27730
     27732     27731     27733     27735     27734     27736     27738     27737     27739
     27741     27740     27742     27744     27743     27745     27747     27746     27748
     27750     27749     27751     27753     27752     27754     27756     27755     27757
     27759     27758     27760     27762     27761     27763     27765     27764     27766
     27768     27767     27769     27771     27770     27772     27774     27773     27775
     27777     27776     27778     27780     27779     27781     27783     27782     27784
     27786     27785     27787     27789     27788     27790     27792     27791     27793
     27795     27794     27796     27798     27797     27799     27801     27800     27802
     27804     27803     27805     27807     27806     27808     27810     27809     27811
     27813     27812     27814     27816     27815     27817     27819     27818     27820
     27822     27821     27823     27825     27824     27826     27828     27827     27829
     27831     27830     27832     27834     27833     27835     27837     27836     27838
     27840     27839     27841     27843     27842     27844     27846     27845     27847
     27849     27848     27850     27852     27851     27853     27855     27854     27856
     27858     27857     27859     27861     27860     27862     27864     27863     27865
     27867     27866     27868     27870     27869     27871     27873     27872     27874
     27876     27875     27877     27879     27878     27880     27882     27881     27883
     27885     27884     27886     27888     27887     27889     27891     27890     27892
     27894     27893     27895     27897     27896     27898     27900     27899     27901
     27903     27902     27904     27906     27905     27907     27909     27908     27910
     27912     27911     27913     27915     27914     27916     27918     27917     27919
     27921     27920     27922     27924     27923     27925     27927     27926     27928
     27930     27929     27931     27933     27932     27934     27936     27935     27937
     27939     27938     27940     27942     27941     27943     27945     27944     27946
     27948     27947     27949     27951     27950     27952     27954     27953     27955
     27957     27956     27958     27960     27959     27961     27963     27962     27964
     27966     27965     27967     27969     27968     27970     27972     27971     27973
     27975     27974     27976     27978     27977     27979     27981     27980     27982
     27984     27983     27985     27987     27986     27988     27990     27989     27991
     27993     27992     27994     27996     27995     27997     27999     27998     28000
     28002     28001     28003     28005     28004     28006     28008     28007     28009
     28011     28010     28012     28014     28013     28015     28017     28016     28018
     28020     28019     28021     28023     28022     28024     28026     28025     28027
     28029     28028     28030     28032     28031     28033     28035     28034     28036
     28038     28037     28039     28041     28040     28042     28044     28043     28045
     28047     28046     28048     28050     28049     28051     28053     28052     28054
     28056     28055     28057     28059     28058     28060     28062     28061     28063
     28065     28064     28066     28068     28067     28069     28071     28070     28072
     28074     28073     28075     28077     28076     28078     28080     28079     28081
     28083     28082     28084     28086     28085     28087     28089     28088     28090
     28092     28091     28093     28095     28094     28096     28098     28097     28099
     28101     28100     28102     28104     28103     28105     28107     28106     28108
     28110     28109     28111     28113     28112     28114     28116     28115     28117
     28119     28118     28120     28122     28121     28123     28125     28124     28126
     28128     28127     28129     28131     28130     28132     28134     28133     28135
     28137     28136     28138     28140     28139     28141     28143     28142     28144
     28146     28145     28147     28149     28148     28150     28152     28151     28153
     28155     28154     28156     28158     28157     28159     28161     28160     28162
     28164     28163     28165     28167     28166     28168     28170     28169     28171
     28173     28172     28174     28176     28175     28177     28179     28178     28180
     28182     28181     28183     28185     28184     28186     28188     28187     28189
     28191     28190     28192     28194     28193     28195     28197     28196     28198
     28200     28199     28201     28203     28202     28204     28206     28205     28207
     28209     28208     28210     28212     28211     28213     28215     28214     28216
     28218     28217     28219     28221     28220     28222     28224     28223     28225
     28227     28226     28228     28230     28229     28231     28233     28232     28234
     28236     28235     28237     28239     28238     28240     28242     28241     28243
     28245     28244     28246     28248     28247     28249     28251     28250     28252
     28254     28253     28255     28257     28256     28258     28260     28259     28261
     28263     28262     28264     28266     28265     28267     28269     28268     28270
     28272     28271     28273     28275     28274     28276     28278     28277     28279
     28281     28280     28282     28284     28283     28285     28287     28286     28288
     28290     28289     28291     28293     28292     28294     28296     28295     28297
     28299     28298     28300     28302     28301     28303     28305     28304     28306
     28308     28307     28309     28311     28310     28312     28314     28313     28315
     28317     28316     28318     28320     28319     28321     28323     28322     28324
     28326     28325     28327     28329     28328     28330     28332     28331     28333
     28335     28334     28336     28338     28337     28339     28341     28340     28342
     28344     28343     28345     28347     28346     28348     28350     28349     28351
     28353     28352     28354     28356     28355     28357     28359     28358     28360
     28362     28361     28363     28365     28364     28366     28368     28367     28369
     28371     28370     28372     28374     28373     28375     28377     28376     28378
     28380     28379     28381     28383     28382     28384     28386     28385     28387
     28389     28388     28390     28392     28391     28393     28395     28394     28396
     28398     28397     28399     28401     28400     28402     28404     28403     28405
     28407     28406     28408     28410     28409     28411     28413     28412     28414
     28416     28415     28417     28419     28418     28420     28422     28421     28423
     28425     28424     28426     28428     28427     28429     28431     28430     28432
     28434     28433     28435     28437     28436     28438     28440     28439     28441
     28443     28442     28444     28446     28445     28447     28449     28448     28450
     28452     28451     28453     28455     28454     28456     28458     28457     28459
     28461     28460     28462     28464     28463     28465     28467     28466     28468
     28470     28469     28471     28473     28472     28474     28476     28475     28477
     28479     28478     28480     28482     28481     28483     28485     28484     28486
     28488     28487     28489     28491     28490     28492     28494     28493     28495
     28497     28496     28498     28500     28499     28501     28503     28502     28504
     28506     28505     28507     28509     28508     28510     28512     28511     28513
     28515     28514     28516     28518     28517     28519     28521     28520     28522
     28524     28523     28525     28527     28526     28528     28530     28529     28531
     28533     28532     28534     28536     28535     28537     28539     28538     28540
     28542     28541     28543     28545     28544     28546     28548     28547     28549
     28551     28550     28552     28554     28553     28555     28557     28556     28558
     28560     28559     28561     28563     28562     28564     28566     28565     28567
     28569     28568     28570     28572     28571     28573     28575     28574     28576
     28578     28577     28579     28581     28580     28582     28584     28583     28585
     28587     28586     28588     28590     28589     28591     28593     28592     28594
     28596     28595     28597     28599     28598     28600     28602     28601     28603
     28605     28604     28606     28608     28607     28609     28611     28610     28612
     28614     28613     28615     28617     28616     28618     28620     28619     28621
     28623     28622     28624     28626     28625     28627     28629     28628     28630
     28632     28631     28633     28635     28634     28636     28638     28637     28639
     28641     28640     28642     28644     28643     28645     28647     28646     28648
     28650     28649     28651     28653     28652     28654     28656     28655     28657
     28659     28658     28660     28662     28661     28663     28665     28664     28666
     28668     28667     28669     28671     28670     28672     28674     28673     28675
     28677     28676     28678     28680     28679     28681     28683     28682     28684
     28686     28685     28687     28689     28688     28690     28692     28691     28693
     28695     28694     28696     28698     28697     28699     28701     28700     28702
     28704     28703     28705     28707     28706     28708     28710     28709     28711
     28713     28712     28714     28716     28715     28717     28719     28718     28720
     28722     28721     28723     28725     28724     28726     28728     28727     28729
     28731     28730     28732     28734     28733     28735     28737     28736     28738
     28740     28739     28741     28743     28742     28744     28746     28745     28747
     28749     28748     28750     28752     28751     28753     28755     28754     28756
     28758     28757     28759     28761     28760     28762     28764     28763     28765
     28767     28766     28768     28770     28769     28771     28773     28772     28774
     28776     28775     28777     28779     28778     28780     28782     28781     28783
     28785     28784     28786     28788     28787     28789     28791     28790     28792
     28794     28793     28795     28797     28796     28798     28800     28799     28801
     28803     28802     28804     28806     28805     28807     28809     28808     28810
     28812     28811     28813     28815     28814     28816     28818     28817     28819
     28821     28820     28822     28824     28823     28825     28827     28826     28828
     28830     28829     28831     28833     28832     28834     28836     28835     28837
     28839     28838     28840     28842     28841     28843     28845     28844     28846
     28848     28847     28849     28851     28850     28852     28854     28853     28855
     28857     28856     28858     28860     28859     28861     28863     28862     28864
     28866     28865     28867     28869     28868     28870     28872     28871     28873
     28875     28874     28876     28878     28877     28879     28881     28880     28882
     28884     28883     28885     28887     28886     28888     28890     28889     28891
     28893     28892     28894     28896     28895     28897     28899     28898     28900
     28902     28901     28903     28905     28904     28906     28908     28907     28909
     28911     28910     28912     28914     28913     28915     28917     28916     28918
     28920     28919     28921     28923     28922     28924     28926     28925     28927
     28929     28928     28930     28932     28931     28933     28935     28934     28936
     28938     28937     28939     28941     28940     28942     28944     28943     28945
     28947     28946     28948     28950     28949     28951     28953     28952     28954
     28956     28955     28957     28959     28958     28960     28962     28961     28963
     28965     28964     28966     28968     28967     28969     28971     28970     28972
     28974     28973     28975     28977     28976     28978     28980     28979     28981
     28983     28982     28984     28986     28985     28987     28989     28988     28990
     28992     28991     28993     28995     28994     28996     28998     28997     28999
     29001     29000     29002     29004     29003     29005     29007     29006     29008
     29010     29009     29011     29013     29012     29014     29016     29015     29017
     29019     29018     29020     29022     29021     29023     29025     29024     29026
     29028     29027     29029     29031     29030     29032     29034     29033     29035
     29037     29036     29038     29040     29039     29041     29043     29042     29044
     29046     29045     29047     29049     29048     29050     29052     29051     29053
     29055     29054     29056     29058     29057     29059     29061     29060     29062
     29064     29063     29065     29067     29066     29068     29070     29069     29071
     29073     29072     29074     29076     29075     29077     29079     29078     29080
     29082     29081     29083     29085     29084     29086     29088     29087     29089
     29091     29090     29092     29094     29093     29095     29097     29096     29098
     29100     29099     29101     29103     29102     29104     29106     29105     29107
     29109     29108     29110     29112     29111     29113     29115     29114     29116
     29118     29117     29119     29121     29120     29122     29124     29123     29125
     29127     29126     29128     29130     29129     29131     29133     29132     29134
     29136     29135     29137     29139     29138     29140     29142     29141     29143
     29145     29144     29146     29148     29147     29149     29151     29150     29152
     29154     29153     29155     29157     29156     29158     29160     29159     29161
     29163     29162     29164     29166     29165     29167     29169     29168     29170
     29172     29171     29173     29175     29174     29176     29178     29177     29179
     29181     29180     29182     29184     29183     29185     29187     29186     29188
     29190     29189     29191     29193     29192     29194     29196     29195     29197
     29199     29198     29200     29202     29201     29203     29205     29204     29206
     29208     29207     29209     29211     29210     29212     29214     29213     29215
     29217     29216     29218     29220     29219     29221     29223     29222     29224
     29226     29225     29227     29229     29228     29230     29232     29231     29233
     29235     29234     29236     29238     29237     29239     29241     29240     29242
     29244     29243     29245     29247     29246     29248     29250     29249     29251
     29253     29252     29254     29256     29255     29257     29259     29258     29260
     29262     29261     29263     29265     29264     29266     29268     29267     29269
     29271     29270     29272     29274     29273     29275     29277     29276     29278
     29280     29279     29281     29283     29282     29284     29286     29285     29287
     29289     29288     29290     29292     29291     29293     29295     29294     29296
     29298     29297     29299     29301     29300     29302     29304     29303     29305
     29307     29306     29308     29310     29309     29311     29313     29312     29314
     29316     29315     29317     29319     29318     29320     29322     29321     29323
     29325     29324     29326     29328     29327     29329     29331     29330     29332
     29334     29333     29335     29337     29336     29338     29340     29339     29341
     29343     29342     29344     29346     29345     29347     29349     29348     29350
     29352     29351     29353     29355     29354     29356     29358     29357     29359
     29361     29360     29362     29364     29363     29365     29367     29366     29368
     29370     29369     29371     29373     29372     29374     29376     29375     29377
     29379     29378     29380     29382     29381     29383     29385     29384     29386
     29388     29387     29389     29391     29390     29392     29394     29393     29395
     29397     29396     29398     29400     29399     29401     29403     29402     29404
     29406     29405     29407     29409     29408     29410     29412     29411     29413
     29415     29414     29416     29418     29417     29419     29421     29420     29422
     29424     29423     29425     29427     29426     29428     29430     29429     29431
     29433     29432     29434     29436     29435     29437     29439     29438     29440
     29442     29441     29443     29445     29444     29446     29448     29447     29449
     29451     29450     29452     29454     29453     29455     29457     29456     29458
     29460     29459     29461     29463     29462     29464     29466     29465     29467
     29469     29468     29470     29472     29471     29473     29475     29474     29476
     29478     29477     29479     29481     29480     29482     29484     29483     29485
     29487     29486     29488     29490     29489     29491     29493     29492     29494
     29496     29495     29497     29499     29498     29500     29502     29501     29503
     29505     29504     29506     29508     29507     29509     29511     29510     29512
     29514     29513     29515     29517     29516     29518     29520     29519     29521
     29523     29522     29524     29526     29525     29527     29529     29528     29530
     29532     29531     29533     29535     29534     29536     29538     29537     29539
     29541     29540     29542     29544     29543     29545     29547     29546     29548
     29550     29549     29551     29553     29552     29554     29556     29555     29557
     29559     29558     29560     29562     29561     29563     29565     29564     29566
     29568     29567     29569     29571     29570     29572     29574     29573     29575
     29577     29576     29578     29580     29579     29581     29583     29582     29584
     29586     29585     29587     29589     29588     29590     29592     29591     29593
     29595     29594     29596     29598     29597     29599     29601     29600     29602
     29604     29603     29605     29607     29606     29608     29610     29609     29611
     29613     29612     29614     29616     29615     29617     29619     29618     29620
     29622     29621     29623     29625     29624     29626     29628     29627     29629
     29631     29630     29632     29634     29633     29635     29637     29636     29638
     29640     29639     29641     29643     29642     29644     29646     29645     29647
     29649     29648     29650     29652     29651     29653     29655     29654     29656
     29658     29657     29659     29661     29660     29662     29664     29663     29665
     29667     29666     29668     29670     29669     29671     29673     29672     29674
     29676     29675     29677     29679     29678     29680     29682     29681     29683
     29685     29684     29686     29688     29687     29689     29691     29690     29692
     29694     29693     29695     29697     29696     29698     29700     29699     29701
     29703     29702     29704     29706     29705     29707     29709     29708     29710
     29712     29711     29713     29715     29714     29716     29718     29717     29719
     29721     29720     29722     29724     29723     29725     29727     29726     29728
     29730     29729     29731     29733     29732     29734     29736     29735     29737
     29739     29738     29740     29742     29741     29743     29745     29744     29746
     29748     29747     29749     29751     29750     29752     29754     29753     29755
     29757     29756     29758     29760     29759     29761     29763     29762     29764
     29766     29765     29767     29769     29768     29770     29772     29771     29773
     29775     29774     29776     29778     29777     29779     29781     29780     29782
     29784     29783     29785     29787     29786     29788     29790     29789     29791
     29793     29792     29794     29796     29795     29797     29799     29798     29800
     29802     29801     29803     29805     29804     29806     29808     29807     29809
     29811     29810     29812     29814     29813     29815     29817     29816     29818
     29820     29819     29821     29823     29822     29824     29826     29825     29827
     29829     29828     29830     29832     29831     29833     29835     29834     29836
     29838     29837     29839     29841     29840     29842     29844     29843     29845
     29847     29846     29848     29850     29849     29851     29853     29852     29854
     29856     29855     29857     29859     29858     29860     29862     29861     29863
     29865     29864     29866     29868     29867     29869     29871     29870     29872
     29874     29873     29875     29877     29876     29878     29880     29879     29881
     29883     29882     29884     29886     29885     29887     29889     29888     29890
     29892     29891     29893     29895     29894     29896     29898     29897     29899
     29901     29900     29902     29904     29903     29905     29907     29906     29908
     29910     29909     29911     29913     29912     29914     29916     29915     29917
     29919     29918     29920     29922     29921     29923     29925     29924     29926
     29928     29927     29929     29931     29930     29932     29934     29933     29935
     29937     29936     29938     29940     29939     29941     29943     29942     29944
     29946     29945     29947     29949     29948     29950     29952     29951     29953
     29955     29954     29956     29958     29957     29959     29961     29960     29962
     29964     29963     29965     29967     29966     29968     29970     29969     29971
     29973     29972     29974     29976     29975     29977     29979     29978     29980
     29982     29981     29983     29985     29984     29986     29988     29987     29989
     29991     29990     29992     29994     29993     29995     29997     29996     29998
     30000     29999     30001     30003     30002     30004     30006     30005     30007
     30009     30008     30010     30012     30011     30013     30015     30014     30016
     30018     30017     30019     30021     30020     30022     30024     30023     30025
     30027     30026     30028     30030     30029     30031     30033     30032     30034
     30036     30035     30037     30039     30038     30040     30042     30041     30043
     30045     30044     30046     30048     30047     30049     30051     30050     30052
     30054     30053     30055     30057     30056     30058     30060     30059     30061
     30063     30062     30064     30066     30065     30067     30069     30068     30070
     30072     30071     30073     30075     30074     30076     30078     30077     30079
     30081     30080     30082     30084     30083     30085     30087     30086     30088
     30090     30089     30091     30093     30092     30094     30096     30095     30097
     30099     30098     30100     30102     30101     30103     30105     30104     30106
     30108     30107     30109     30111     30110     30112     30114     30113     30115
     30117     30116     30118     30120     30119     30121     30123     30122     30124
     30126     30125     30127     30129     30128     30130     30132     30131     30133
     30135     30134     30136     30138     30137     30139     30141     30140     30142
     30144     30143     30145     30147     30146     30148     30150     30149     30151
     30153     30152     30154     30156     30155     30157     30159     30158     30160
     30162     30161     30163     30165     30164     30166     30168     30167     30169
     30171     30170     30172     30174     30173     30175     30177     30176     30178
     30180     30179     30181     30183     30182     30184     30186     30185     30187
     30189     30188     30190     30192     30191     30193     30195     30194     30196
     30198     30197     30199     30201     30200     30202     30204     30203     30205
     30207     30206     30208     30210     30209     30211     30213     30212     30214
     30216     30215     30217     30219     30218     30220     30222     30221     30223
     30225     30224     30226     30228     30227     30229     30231     30230     30232
     30234     30233     30235     30237     30236     30238     30240     30239     30241
     30243     30242     30244     30246     30245     30247     30249     30248     30250
     30252     30251     30253     30255     30254     30256     30258     30257     30259
     30261     30260     30262     30264     30263     30265     30267     30266     30268
     30270     30269     30271     30273     30272     30274     30276     30275     30277
     30279     30278     30280     30282     30281     30283     30285     30284     30286
     30288     30287     30289     30291     30290     30292     30294     30293     30295
     30297     30296     30298     30300     30299     30301     30303     30302     30304
     30306     30305     30307     30309     30308     30310     30312     30311     30313
     30315     30314     30316     30318     30317     30319     30321     30320     30322
     30324     30323     30325     30327     30326     30328     30330     30329     30331
     30333     30332     30334     30336     30335     30337     30339     30338     30340
     30342     30341     30343     30345     30344     30346     30348     30347     30349
     30351     30350     30352     30354     30353     30355     30357     30356     30358
     30360     30359     30361     30363     30362     30364     30366     30365     30367
     30369     30368     30370     30372     30371     30373     30375     30374     30376
     30378     30377     30379     30381     30380     30382     30384     30383     30385
     30387     30386     30388     30390     30389     30391     30393     30392     30394
     30396     30395     30397     30399     30398     30400     30402     30401     30403
     30405     30404     30406     30408     30407     30409     30411     30410     30412
     30414     30413     30415     30417     30416     30418     30420     30419     30421
     30423     30422     30424     30426     30425     30427     30429     30428     30430
     30432     30431     30433     30435     30434     30436     30438     30437     30439
     30441     30440     30442     30444     30443     30445     30447     30446     30448
     30450     30449     30451     30453     30452     30454     30456     30455     30457
     30459     30458     30460     30462     30461     30463     30465     30464     30466
     30468     30467     30469     30471     30470     30472     30474     30473     30475
     30477     30476     30478     30480     30479     30481     30483     30482     30484
     30486     30485     30487     30489     30488     30490     30492     30491     30493
     30495     30494     30496     30498     30497     30499     30501     30500     30502
     30504     30503     30505     30507     30506     30508     30510     30509     30511
     30513     30512     30514     30516     30515     30517     30519     30518     30520
     30522     30521     30523     30525     30524     30526     30528     30527     30529
     30531     30530     30532     30534     30533     30535     30537     30536     30538
     30540     30539     30541     30543     30542     30544     30546     30545     30547
     30549     30548     30550     30552     30551     30553     30555     30554     30556
     30558     30557     30559     30561     30560     30562     30564     30563     30565
     30567     30566     30568     30570     30569     30571     30573     30572     30574
     30576     30575     30577     30579     30578     30580     30582     30581     30583
     30585     30584     30586     30588     30587     30589     30591     30590     30592
     30594     30593     30595     30597     30596     30598     30600     30599     30601
     30603     30602     30604     30606     30605     30607     30609     30608     30610
     30612     30611     30613     30615     30614     30616     30618     30617     30619
     30621     30620     30622     30624     30623     30625     30627     30626     30628
     30630     30629     30631     30633     30632     30634     30636     30635     30637
     30639     30638     30640     30642     30641     30643     30645     30644     30646
     30648     30647     30649     30651     30650     30652     30654     30653     30655
     30657     30656     30658     30660     30659     30661     30663     30662     30664
     30666     30665     30667     30669     30668     30670     30672     30671     30673
     30675     30674     30676     30678     30677     30679     30681     30680     30682
     30684     30683     30685     30687     30686     30688     30690     30689     30691
     30693     30692     30694     30696     30695     30697     30699     30698     30700
     30702     30701     30703     30705     30704     30706     30708     30707     30709
     30711     30710     30712     30714     30713     30715     30717     30716     30718
     30720     30719     30721     30723     30722     30724     30726     30725     30727
     30729     30728     30730     30732     30731     30733     30735     30734     30736
     30738     30737     30739     30741     30740     30742     30744     30743     30745
     30747     30746     30748     30750     30749     30751     30753     30752     30754
     30756     30755     30757     30759     30758     30760     30762     30761     30763
     30765     30764     30766     30768     30767     30769     30771     30770     30772
     30774     30773     30775     30777     30776     30778     30780     30779     30781
     30783     30782     30784     30786     30785     30787     30789     30788     30790
     30792     30791     30793     30795     30794     30796     30798     30797     30799
     30801     30800     30802     30804     30803     30805     30807     30806     30808
     30810     30809     30811     30813     30812     30814     30816     30815     30817
     30819     30818     30820     30822     30821     30823     30825     30824     30826
     30828     30827     30829     30831     30830     30832     30834     30833     30835
     30837     30836     30838     30840     30839     30841     30843     30842     30844
     30846     30845     30847     30849     30848     30850     30852     30851     30853
     30855     30854     30856     30858     30857     30859     30861     30860     30862
     30864     30863     30865     30867     30866     30868     30870     30869     30871
     30873     30872     30874     30876     30875     30877     30879     30878     30880
     30882     30881     30883     30885     30884     30886     30888     30887     30889
     30891     30890     30892     30894     30893     30895     30897     30896     30898
     30900     30899     30901     30903     30902     30904     30906     30905     30907
     30909     30908     30910     30912     30911     30913     30915     30914     30916
     30918     30917     30919     30921     30920     30922     30924     30923     30925
     30927     30926     30928     30930     30929     30931     30933     30932     30934
     30936     30935     30937     30939     30938     30940     30942     30941     30943
     30945     30944     30946     30948     30947     30949     30951     30950     30952
     30954     30953     30955     30957     30956     30958     30960     30959     30961
     30963     30962     30964     30966     30965     30967     30969     30968     30970
     30972     30971     30973     30975     30974     30976     30978     30977     30979
     30981     30980     30982     30984     30983     30985     30987     30986     30988
     30990     30989     30991     30993     30992     30994     30996     30995     30997
     30999     30998     31000     31002     31001     31003     31005     31004     31006
     31008     31007     31009     31011     31010     31012     31014     31013     31015
     31017     31016     31018     31020     31019     31021     31023     31022     31024
     31026     31025     31027     31029     31028     31030     31032     31031     31033
     31035     31034     31036     31038     31037     31039     31041     31040     31042
     31044     31043     31045     31047     31046     31048     31050     31049     31051
     31053     31052     31054     31056     31055     31057     31059     31058     31060
     31062     31061     31063     31065     31064     31066     31068     31067     31069
     31071     31070     31072     31074     31073     31075     31077     31076     31078
     31080     31079     31081     31083     31082     31084     31086     31085     31087
     31089     31088     31090     31092     31091     31093     31095     31094     31096
     31098     31097     31099     31101     31100     31102     31104     31103     31105
     31107     31106     31108     31110     31109     31111     31113     31112     31114
     31116     31115     31117     31119     31118     31120     31122     31121     31123
     31125     31124     31126     31128     31127     31129     31131     31130     31132
     31134     31133     31135     31137     31136     31138     31140     31139     31141
     31143     31142     31144     31146     31145     31147     31149     31148     31150
     31152     31151     31153     31155     31154     31156     31158     31157     31159
     31161     31160     31162     31164     31163     31165     31167     31166     31168
     31170     31169     31171     31173     31172     31174     31176     31175     31177
     31179     31178     31180     31182     31181     31183     31185     31184     31186
     31188     31187     31189     31191     31190     31192     31194     31193     31195
     31197     31196     31198     31200     31199     31201     31203     31202     31204
     31206     31205     31207     31209     31208     31210     31212     31211     31213
     31215     31214     31216     31218     31217     31219     31221     31220     31222
     31224     31223     31225     31227     31226     31228     31230     31229     31231
     31233     31232     31234     31236     31235     31237     31239     31238     31240
     31242     31241     31243     31245     31244     31246     31248     31247     31249
     31251     31250     31252     31254     31253     31255     31257     31256     31258
     31260     31259     31261     31263     31262     31264     31266     31265     31267
     31269     31268     31270     31272     31271     31273     31275     31274     31276
     31278     31277     31279     31281     31280     31282     31284     31283     31285
     31287     31286     31288     31290     31289     31291     31293     31292     31294
     31296     31295     31297     31299     31298     31300     31302     31301     31303
     31305     31304     31306     31308     31307     31309     31311     31310     31312
     31314     31313     31315     31317     31316     31318     31320     31319     31321
     31323     31322     31324     31326     31325     31327     31329     31328     31330
     31332     31331     31333     31335     31334     31336     31338     31337     31339
     31341     31340     31342     31344     31343     31345     31347     31346     31348
     31350     31349     31351     31353     31352     31354     31356     31355     31357
     31359     31358     31360     31362     31361     31363     31365     31364     31366
     31368     31367     31369     31371     31370     31372     31374     31373     31375
     31377     31376     31378     31380     31379     31381     31383     31382     31384
     31386     31385     31387     31389     31388     31390     31392     31391     31393
     31395     31394     31396     31398     31397     31399     31401     31400     31402
     31404     31403     31405     31407     31406     31408     31410     31409     31411
     31413     31412     31414     31416     31415     31417     31419     31418     31420
     31422     31421     31423     31425     31424     31426     31428     31427     31429
     31431     31430     31432     31434     31433     31435     31437     31436     31438
     31440     31439     31441     31443     31442     31444     31446     31445     31447
     31449     31448     31450     31452     31451     31453     31455     31454     31456
     31458     31457     31459     31461     31460     31462     31464     31463     31465
     31467     31466     31468     31470     31469     31471     31473     31472     31474
     31476     31475     31477     31479     31478     31480     31482     31481     31483
     31485     31484     31486     31488     31487     31489     31491     31490     31492
     31494     31493     31495     31497     31496     31498     31500     31499     31501
     31503     31502     31504     31506     31505     31507     31509     31508     31510
     31512     31511     31513     31515     31514     31516     31518     31517     31519
     31521     31520     31522     31524     31523     31525     31527     31526     31528
     31530     31529     31531     31533     31532     31534     31536     31535     31537
     31539     31538     31540     31542     31541     31543     31545     31544     31546
     31548     31547     31549     31551     31550     31552     31554     31553     31555
     31557     31556     31558     31560     31559     31561     31563     31562     31564
     31566     31565     31567     31569     31568     31570     31572     31571     31573
     31575     31574     31576     31578     31577     31579     31581     31580     31582
     31584     31583     31585     31587     31586     31588     31590     31589     31591
     31593     31592     31594     31596     31595     31597     31599     31598     31600
     31602     31601     31603     31605     31604     31606     31608     31607     31609
     31611     31610     31612     31614     31613     31615     31617     31616     31618
     31620     31619     31621     31623     31622     31624     31626     31625     31627
     31629     31628     31630     31632     31631     31633     31635     31634     31636
     31638     31637     31639     31641     31640     31642     31644     31643     31645
     31647     31646     31648     31650     31649     31651     31653     31652     31654
     31656     31655     31657     31659     31658     31660     31662     31661     31663
     31665     31664     31666     31668     31667     31669     31671     31670     31672
     31674     31673     31675     31677     31676     31678     31680     31679     31681
     31683     31682     31684     31686     31685     31687     31689     31688     31690
     31692     31691     31693     31695     31694     31696     31698     31697     31699
     31701     31700     31702     31704     31703     31705     31707     31706     31708
     31710     31709     31711     31713     31712     31714     31716     31715     31717
     31719     31718     31720     31722     31721     31723     31725     31724     31726
     31728     31727     31729     31731     31730     31732     31734     31733     31735
     31737     31736     31738     31740     31739     31741     31743     31742     31744
     31746     31745     31747     31749     31748     31750     31752     31751     31753
     31755     31754     31756     31758     31757     31759     31761     31760     31762
     31764     31763     31765     31767     31766     31768     31770     31769     31771
     31773     31772     31774     31776     31775     31777     31779     31778     31780
     31782     31781     31783     31785     31784     31786     31788     31787     31789
     31791     31790     31792     31794     31793     31795     31797     31796     31798
     31800     31799     31801     31803     31802     31804     31806     31805     31807
     31809     31808     31810     31812     31811     31813     31815     31814     31816
     31818     31817     31819     31821     31820     31822     31824     31823     31825
     31827     31826     31828     31830     31829     31831     31833     31832     31834
     31836     31835     31837     31839     31838     31840     31842     31841     31843
     31845     31844     31846     31848     31847     31849     31851     31850     31852
     31854     31853     31855     31857     31856     31858     31860     31859     31861
     31863     31862     31864     31866     31865     31867     31869     31868     31870
     31872     31871     31873     31875     31874     31876     31878     31877     31879
     31881     31880     31882     31884     31883     31885     31887     31886     31888
     31890     31889     31891     31893     31892     31894     31896     31895     31897
     31899     31898     31900     31902     31901     31903     31905     31904     31906
     31908     31907     31909     31911     31910     31912     31914     31913     31915
     31917     31916     31918     31920     31919     31921     31923     31922     31924
     31926     31925     31927     31929     31928     31930     31932     31931     31933
     31935     31934     31936     31938     31937     31939     31941     31940     31942
     31944     31943     31945     31947     31946     31948     31950     31949     31951
     31953     31952     31954     31956     31955     31957     31959     31958     31960
     31962     31961     31963     31965     31964     31966     31968     31967     31969
     31971     31970     31972     31974     31973     31975     31977     31976     31978
     31980     31979     31981     31983     31982     31984     31986     31985     31987
     31989     31988     31990     31992     31991     31993     31995     31994     31996
     31998     31997     31999     32001     32000     32002     32004     32003     32005
     32007     32006     32008     32010     32009     32011     32013     32012     32014
     32016     32015     32017     32019     32018     32020     32022     32021     32023
     32025     32024     32026     32028     32027     32029     32031     32030     32032
     32034     32033     32035     32037     32036     32038     32040     32039     32041
     32043     32042     32044     32046     32045     32047     32049     32048     32050
     32052     32051     32053     32055     32054     32056     32058     32057     32059
     32061     32060     32062     32064     32063     32065     32067     32066     32068
     32070     32069     32071     32073     32072     32074     32076     32075     32077
     32079     32078     32080     32082     32081     32083     32085     32084     32086
     32088     32087     32089     32091     32090     32092     32094     32093     32095
     32097     32096     32098     32100     32099     32101     32103     32102     32104
     32106     32105     32107     32109     32108     32110     32112     32111     32113
     32115     32114     32116     32118     32117     32119     32121     32120     32122
     32124     32123     32125     32127     32126     32128     32130     32129     32131
     32133     32132     32134     32136     32135     32137     32139     32138     32140
     32142     32141     32143     32145     32144     32146     32148     32147     32149
     32151     32150     32152     32154     32153     32155     32157     32156     32158
     32160     32159     32161     32163     32162     32164     32166     32165     32167
     32169     32168     32170     32172     32171     32173     32175     32174     32176
     32178     32177     32179     32181     32180     32182     32184     32183     32185
     32187     32186     32188     32190     32189     32191     32193     32192     32194
     32196     32195     32197     32199     32198     32200     32202     32201     32203
     32205     32204     32206     32208     32207     32209     32211     32210     32212
     32214     32213     32215     32217     32216     32218     32220     32219     32221
     32223     32222     32224     32226     32225     32227     32229     32228     32230
     32232     32231     32233     32235     32234     32236     32238     32237     32239
     32241     32240     32242     32244     32243     32245     32247     32246     32248
     32250     32249     32251     32253     32252     32254     32256     32255     32257
     32259     32258     32260     32262     32261     32263     32265     32264     32266
     32268     32267     32269     32271     32270     32272     32274     32273     32275
     32277     32276     32278     32280     32279     32281     32283     32282     32284
     32286     32285     32287     32289     32288     32290     32292     32291     32293
     32295     32294     32296     32298     32297     32299     32301     32300     32302
     32304     32303     32305     32307     32306     32308     32310     32309     32311
     32313     32312     32314     32316     32315     32317     32319     32318     32320
     32322     32321     32323     32325     32324     32326     32328     32327     32329
     32331     32330     32332     32334     32333     32335     32337     32336     32338
     32340     32339     32341     32343     32342     32344     32346     32345     32347
     32349     32348     32350     32352     32351     32353     32355     32354     32356
     32358     32357     32359     32361     32360     32362     32364     32363     32365
     32367     32366     32368     32370     32369     32371     32373     32372     32374
     32376     32375     32377     32379     32378     32380     32382     32381     32383
     32385     32384     32386     32388     32387     32389     32391     32390     32392
     32394     32393     32395     32397     32396     32398     32400     32399     32401
     32403     32402     32404     32406     32405     32407     32409     32408     32410
     32412     32411     32413     32415     32414     32416     32418     32417     32419
     32421     32420     32422     32424     32423     32425     32427     32426     32428
     32430     32429     32431     32433     32432     32434     32436     32435     32437
     32439     32438     32440     32442     32441     32443     32445     32444     32446
     32448     32447     32449     32451     32450     32452     32454     32453     32455
     32457     32456     32458     32460     32459     32461     32463     32462     32464
     32466     32465     32467     32469     32468     32470     32472     32471     32473
     32475     32474     32476     32478     32477     32479     32481     32480     32482
     32484     32483     32485     32487     32486     32488     32490     32489     32491
     32493     32492     32494     32496     32495     32497     32499     32498     32500
     32502     32501     32503     32505     32504     32506     32508     32507     32509
     32511     32510     32512     32514     32513     32515     32517     32516     32518
     32520     32519     32521     32523     32522     32524     32526     32525     32527
     32529     32528     32530     32532     32531     32533     32535     32534     32536
     32538     32537     32539     32541     32540     32542     32544     32543     32545
     32547     32546     32548     32550     32549     32551     32553     32552     32554
     32556     32555     32557     32559     32558     32560     32562     32561     32563
     32565     32564     32566     32568     32567     32569     32571     32570     32572
     32574     32573     32575     32577     32576     32578     32580     32579     32581
     32583     32582     32584     32586     32585     32587     32589     32588     32590
     32592     32591     32593     32595     32594     32596     32598     32597     32599
     32601     32600     32602     32604     32603     32605     32607     32606     32608
     32610     32609     32611     32613     32612     32614     32616     32615     32617
     32619     32618     32620     32622     32621     32623     32625     32624     32626
     32628     32627     32629     32631     32630     32632     32634     32633     32635
     32637     32636     32638     32640     32639     32641     32643     32642     32644
     32646     32645     32647     32649     32648     32650     32652     32651     32653
     32655     32654     32656     32658     32657     32659     32661     32660     32662
     32664     32663     32665     32667     32666     32668     32670     32669     32671
     32673     32672     32674     32676     32675     32677     32679     32678     32680
     32682     32681     32683     32685     32684     32686     32688     32687     32689
     32691     32690     32692     32694     32693     32695     32697     32696     32698
     32700     32699     32701     32703     32702     32704     32706     32705     32707
     32709     32708     32710     32712     32711     32713     32715     32714     32716
     32718     32717     32719     32721     32720     32722     32724     32723     32725
     32727     32726     32728     32730     32729     32731     32733     32732     32734
     32736     32735     32737     32739     32738     32740     32742     32741     32743
     32745     32744     32746     32748     32747     32749     32751     32750     32752
     32754     32753     32755     32757     32756     32758     32760     32759     32761
     32763     32762     32764     32766     32765     32767     32769     32768     32770
     32772     32771     32773     32775     32774     32776     32778     32777     32779
     32781     32780     32782     32784     32783     32785     32787     32786     32788
     32790     32789     32791     32793     32792     32794     32796     32795     32797
     32799     32798     32800     32802     32801     32803     32805     32804     32806
     32808     32807     32809     32811     32810     32812     32814     32813     32815
     32817     32816     32818     32820     32819     32821     32823     32822     32824
     32826     32825     32827     32829     32828     32830     32832     32831     32833
     32835     32834     32836     32838     32837     32839     32841     32840     32842
     32844     32843     32845     32847     32846     32848     32850     32849     32851
     32853     32852     32854     32856     32855     32857     32859     32858     32860
     32862     32861     32863     32865     32864     32866     32868     32867     32869
     32871     32870     32872     32874     32873     32875     32877     32876     32878
     32880     32879     32881     32883     32882     32884     32886     32885     32887
     32889     32888     32890     32892     32891     32893     32895     32894     32896
     32898     32897     32899     32901     32900     32902     32904     32903     32905
     32907     32906     32908     32910     32909     32911     32913     32912     32914
     32916     32915     32917     32919     32918     32920     32922     32921     32923
     32925     32924     32926     32928     32927     32929     32931     32930     32932
     32934     32933     32935     32937     32936     32938     32940     32939     32941
     32943     32942     32944     32946     32945     32947     32949     32948     32950
     32952     32951     32953     32955     32954     32956     32958     32957     32959
     32961     32960     32962     32964     32963     32965     32967     32966     32968
     32970     32969     32971     32973     32972     32974     32976     32975     32977
     32979     32978     32980     32982     32981     32983     32985     32984     32986
     32988     32987     32989     32991     32990     32992     32994     32993     32995
     32997     32996     32998     33000     32999     33001     33003     33002     33004
     33006     33005     33007     33009     33008     33010     33012     33011     33013
     33015     33014     33016     33018     33017     33019     33021     33020     33022
     33024     33023     33025     33027     33026     33028     33030     33029     33031
     33033     33032     33034     33036     33035     33037     33039     33038     33040
     33042     33041     33043     33045     33044     33046     33048     33047     33049
     33051     33050     33052     33054     33053     33055     33057     33056     33058
     33060     33059     33061     33063     33062     33064     33066     33065     33067
     33069     33068     33070     33072     33071     33073     33075     33074     33076
     33078     33077     33079     33081     33080     33082     33084     33083     33085
     33087     33086     33088     33090     33089     33091     33093     33092     33094
     33096     33095     33097     33099     33098     33100     33102     33101     33103
     33105     33104     33106     33108     33107     33109     33111     33110     33112
     33114     33113     33115     33117     33116     33118     33120     33119     33121
     33123     33122     33124     33126     33125     33127     33129     33128     33130
     33132     33131     33133     33135     33134     33136     33138     33137     33139
     33141     33140     33142     33144     33143     33145     33147     33146     33148
     33150     33149     33151     33153     33152     33154     33156     33155     33157
     33159     33158     33160     33162     33161     33163     33165     33164     33166
     33168     33167     33169     33171     33170     33172     33174     33173     33175
     33177     33176     33178     33180     33179     33181     33183     33182     33184
     33186     33185     33187     33189     33188     33190     33192     33191     33193
     33195     33194     33196     33198     33197     33199     33201     33200     33202
     33204     33203     33205     33207     33206     33208     33210     33209     33211
     33213     33212     33214     33216     33215     33217     33219     33218     33220
     33222     33221     33223     33225     33224     33226     33228     33227     33229
     33231     33230     33232     33234     33233     33235     33237     33236     33238
     33240     33239     33241     33243     33242     33244     33246     33245     33247
     33249     33248     33250     33252     33251     33253     33255     33254     33256
     33258     33257     33259     33261     33260     33262     33264     33263     33265
     33267     33266     33268     33270     33269     33271     33273     33272     33274
     33276     33275     33277     33279     33278     33280     33282     33281     33283
     33285     33284     33286     33288     33287     33289     33291     33290     33292
     33294     33293     33295     33297     33296     33298     33300     33299     33301
     33303     33302     33304     33306     33305     33307     33309     33308     33310
     33312     33311     33313     33315     33314     33316     33318     33317     33319
     33321     33320     33322     33324     33323     33325     33327     33326     33328
     33330     33329     33331     33333     33332     33334     33336     33335     33337
     33339     33338     33340     33342     33341     33343     33345     33344     33346
     33348     33347     33349     33351     33350     33352     33354     33353     33355
     33357     33356     33358     33360     33359     33361     33363     33362     33364
     33366     33365     33367     33369     33368     33370     33372     33371     33373
     33375     33374     33376     33378     33377     33379     33381     33380     33382
     33384     33383     33385     33387     33386     33388     33390     33389     33391
     33393     33392     33394     33396     33395     33397     33399     33398     33400
     33402     33401     33403     33405     33404     33406     33408     33407     33409
     33411     33410     33412     33414     33413     33415     33417     33416     33418
     33420     33419     33421     33423     33422     33424     33426     33425     33427
     33429     33428     33430     33432     33431     33433     33435     33434     33436
     33438     33437     33439     33441     33440     33442     33444     33443     33445
     33447     33446     33448     33450     33449     33451     33453     33452     33454
     33456     33455     33457     33459     33458     33460     33462     33461     33463
     33465     33464     33466     33468     33467     33469     33471     33470     33472
     33474     33473     33475     33477     33476     33478     33480     33479     33481
     33483     33482     33484     33486     33485     33487     33489     33488     33490
     33492     33491     33493     33495     33494     33496     33498     33497     33499
     33501     33500     33502     33504     33503     33505     33507     33506     33508
     33510     33509     33511     33513     33512     33514     33516     33515     33517
     33519     33518     33520     33522     33521     33523     33525     33524     33526
     33528     33527     33529     33531     33530     33532     33534     33533     33535
     33537     33536     33538     33540     33539     33541     33543     33542     33544
     33546     33545     33547     33549     33548     33550     33552     33551     33553
     33555     33554     33556     33558     33557     33559     33561     33560     33562
     33564     33563     33565     33567     33566     33568     33570     33569     33571
     33573     33572     33574     33576     33575     33577     33579     33578     33580
     33582     33581     33583     33585     33584     33586     33588     33587     33589
     33591     33590     33592     33594     33593     33595     33597     33596     33598
     33600     33599     33601     33603     33602     33604     33606     33605     33607
     33609     33608     33610     33612     33611     33613     33615     33614     33616
     33618     33617     33619     33621     33620     33622     33624     33623     33625
     33627     33626     33628     33630     33629     33631     33633     33632     33634
     33636     33635     33637     33639     33638     33640     33642     33641     33643
     33645     33644     33646     33648     33647     33649     33651     33650     33652
     33654     33653     33655     33657     33656     33658     33660     33659     33661
     33663     33662     33664     33666     33665     33667     33669     33668     33670
     33672     33671     33673     33675     33674     33676     33678     33677     33679
     33681     33680     33682     33684     33683     33685     33687     33686     33688
     33690     33689     33691     33693     33692     33694     33696     33695     33697
     33699     33698     33700     33702     33701     33703     33705     33704     33706
     33708     33707     33709     33711     33710     33712     33714     33713     33715
     33717     33716     33718     33720     33719     33721     33723     33722     33724
     33726     33725     33727     33729     33728     33730     33732     33731     33733
     33735     33734     33736     33738     33737     33739     33741     33740     33742
     33744     33743     33745     33747     33746     33748     33750     33749     33751
     33753     33752     33754     33756     33755     33757     33759     33758     33760
     33762     33761     33763     33765     33764     33766     33768     33767     33769
     33771     33770     33772     33774     33773     33775     33777     33776     33778
     33780     33779     33781     33783     33782     33784     33786     33785     33787
     33789     33788     33790     33792     33791     33793     33795     33794     33796
     33798     33797     33799     33801     33800     33802     33804     33803     33805
     33807     33806     33808     33810     33809     33811     33813     33812     33814
     33816     33815     33817     33819     33818     33820     33822     33821     33823
     33825     33824     33826     33828     33827     33829     33831     33830     33832
     33834     33833     33835     33837     33836     33838     33840     33839     33841
     33843     33842     33844     33846     33845     33847     33849     33848     33850
     33852     33851     33853     33855     33854     33856     33858     33857     33859
     33861     33860     33862     33864     33863     33865     33867     33866     33868
     33870     33869     33871     33873     33872     33874     33876     33875     33877
     33879     33878     33880     33882     33881     33883     33885     33884     33886
     33888     33887     33889     33891     33890     33892     33894     33893     33895
     33897     33896     33898     33900     33899     33901     33903     33902     33904
     33906     33905     33907     33909     33908     33910     33912     33911     33913
     33915     33914     33916     33918     33917     33919     33921     33920     33922
     33924     33923     33925     33927     33926     33928     33930     33929     33931
     33933     33932     33934     33936     33935     33937     33939     33938     33940
     33942     33941     33943     33945     33944     33946     33948     33947     33949
     33951     33950     33952     33954     33953     33955     33957     33956     33958
     33960     33959     33961     33963     33962     33964     33966     33965     33967
     33969     33968     33970     33972     33971     33973     33975     33974     33976
     33978     33977     33979     33981     33980     33982     33984     33983     33985
     33987     33986     33988     33990     33989     33991     33993     33992     33994
     33996     33995     33997     33999     33998     34000     34002     34001     34003
     34005     34004     34006     34008     34007     34009     34011     34010     34012
     34014     34013     34015     34017     34016     34018     34020     34019     34021
     34023     34022     34024     34026     34025     34027     34029     34028     34030
     34032     34031     34033     34035     34034     34036     34038     34037     34039
     34041     34040     34042     34044     34043     34045     34047     34046     34048
     34050     34049     34051     34053     34052     34054     34056     34055     34057
     34059     34058     34060     34062     34061     34063     34065     34064     34066
     34068     34067     34069     34071     34070     34072     34074     34073     34075
     34077     34076     34078     34080     34079     34081     34083     34082     34084
     34086     34085     34087     34089     34088     34090     34092     34091     34093
     34095     34094     34096     34098     34097     34099     34101     34100     34102
     34104     34103     34105     34107     34106     34108     34110     34109     34111
     34113     34112     34114     34116     34115     34117     34119     34118     34120
     34122     34121     34123     34125     34124     34126     34128     34127     34129
     34131     34130     34132     34134     34133     34135     34137     34136     34138
     34140     34139     34141     34143     34142     34144     34146     34145     34147
     34149     34148     34150     34152     34151     34153     34155     34154     34156
     34158     34157     34159     34161     34160     34162     34164     34163     34165
     34167     34166     34168     34170     34169     34171     34173     34172     34174
     34176     34175     34177     34179     34178     34180     34182     34181     34183
     34185     34184     34186     34188     34187     34189     34191     34190     34192
     34194     34193     34195     34197     34196     34198     34200     34199     34201
     34203     34202     34204     34206     34205     34207     34209     34208     34210
     34212     34211     34213     34215     34214     34216     34218     34217     34219
     34221     34220     34222     34224     34223     34225     34227     34226     34228
     34230     34229     34231     34233     34232     34234     34236     34235     34237
     34239     34238     34240     34242     34241     34243     34245     34244     34246
     34248     34247     34249     34251     34250     34252     34254     34253     34255
     34257     34256     34258     34260     34259     34261     34263     34262     34264
     34266     34265     34267     34269     34268     34270     34272     34271     34273
     34275     34274     34276     34278     34277     34279     34281     34280     34282
     34284     34283     34285     34287     34286     34288     34290     34289     34291
     34293     34292     34294     34296     34295     34297     34299     34298     34300
     34302     34301     34303     34305     34304     34306     34308     34307     34309
     34311     34310     34312     34314     34313     34315     34317     34316     34318
     34320     34319     34321     34323     34322     34324     34326     34325     34327
     34329     34328     34330     34332     34331     34333     34335     34334     34336
     34338     34337     34339     34341     34340     34342     34344     34343     34345
     34347     34346     34348     34350     34349     34351     34353     34352     34354
     34356     34355     34357     34359     34358     34360     34362     34361     34363
     34365     34364     34366     34368     34367     34369     34371     34370     34372
     34374     34373     34375     34377     34376     34378     34380     34379     34381
     34383     34382     34384     34386     34385     34387     34389     34388     34390
     34392     34391     34393     34395     34394     34396     34398     34397     34399
     34401     34400     34402     34404     34403     34405     34407     34406     34408
     34410     34409     34411     34413     34412     34414     34416     34415     34417
     34419     34418     34420     34422     34421     34423     34425     34424     34426
     34428     34427     34429     34431     34430     34432     34434     34433     34435
     34437     34436     34438     34440     34439     34441     34443     34442     34444
     34446     34445     34447     34449     34448     34450     34452     34451     34453
     34455     34454     34456     34458     34457     34459     34461     34460     34462
     34464     34463     34465     34467     34466     34468     34470     34469     34471
     34473     34472     34474     34476     34475     34477     34479     34478     34480
     34482     34481     34483     34485     34484     34486     34488     34487     34489
     34491     34490     34492     34494     34493     34495     34497     34496     34498
     34500     34499     34501     34503     34502     34504     34506     34505     34507
     34509     34508     34510     34512     34511     34513     34515     34514     34516
     34518     34517     34519     34521     34520     34522     34524     34523     34525
     34527     34526     34528     34530     34529     34531     34533     34532     34534
     34536     34535     34537     34539     34538     34540     34542     34541     34543
     34545     34544     34546     34548     34547     34549     34551     34550     34552
     34554     34553     34555     34557     34556     34558     34560     34559     34561
     34563     34562     34564     34566     34565     34567     34569     34568     34570
     34572     34571     34573     34575     34574     34576     34578     34577     34579
     34581     34580     34582     34584     34583     34585     34587     34586     34588
     34590     34589     34591     34593     34592     34594     34596     34595     34597
     34599     34598     34600     34602     34601     34603     34605     34604     34606
     34608     34607     34609     34611     34610     34612     34614     34613     34615
     34617     34616     34618     34620     34619     34621     34623     34622     34624
     34626     34625     34627     34629     34628     34630     34632     34631     34633
     34635     34634     34636     34638     34637     34639     34641     34640     34642
     34644     34643     34645     34647     34646     34648     34650     34649     34651
     34653     34652     34654     34656     34655     34657     34659     34658     34660
     34662     34661     34663     34665     34664     34666     34668     34667     34669
     34671     34670     34672     34674     34673     34675     34677     34676     34678
     34680     34679     34681     34683     34682     34684     34686     34685     34687
     34689     34688     34690     34692     34691     34693

     46076 !NPHI: dihedrals
         1         5         7         8         1         5         7         9
         1         5         7        10         1         5        23        24
         1         5        23        25         2         1         5         6
         2         1         5         7         2         1         5        23
         3         1         5         6         3         1         5         7
         3         1         5        23         4         1         5         6
         4         1         5         7         4         1         5        23
         5         7        10        11         5         7        10        12
         5         7        10        13         6         5         7         8
         6         5         7         9         6         5         7        10
         6         5        23        24         6         5        23        25
         7         5        23        24         7         5        23        25
         7        10        13        14         7        10        13        15
         7        10        13        16         8         7         5        23
         8         7        10        11         8         7        10        12
         8         7        10        13         9         7         5        23
         9         7        10        11         9         7        10        12
         9         7        10        13        10         7         5        23
        10        13        16        17        10        13        16        18
        10        13        16        19        11        10        13        14
        11        10        13        15        11        10        13        16
        12        10        13        14        12        10        13        15
        12        10        13        16        13        16        19        20
        13        16        19        21        13        16        19        22
        14        13        16        17        14        13        16        18
        14        13        16        19        15        13        16        17
        15        13        16        18        15        13        16        19
        17        16        19        20        17        16        19        21
        17        16        19        22        18        16        19        20
        18        16        19        21        18        16        19        22
        26        30        32        33        26        30        32        34
        26        30        32        35        26        30        48        49
        26        30        48        50        27        26        30        31
        27        26        30        32        27        26        30        48
        28        26        30        31        28        26        30        32
        28        26        30        48        29        26        30        31
        29        26        30        32        29        26        30        48
        30        32        35        36        30        32        35        37
        30        32        35        38        31        30        32        33
        31        30        32        34        31        30        32        35
        31        30        48        49        31        30        48        50
        32        30        48        49        32        30        48        50
        32        35        38        39        32        35        38        40
        32        35        38        41        33        32        30        48
        33        32        35        36        33        32        35        37
        33        32        35        38        34        32        30        48
        34        32        35        36        34        32        35        37
        34        32        35        38        35        32        30        48
        35        38        41        42        35        38        41        43
        35        38        41        44        36        35        38        39
        36        35        38        40        36        35        38        41
        37        35        38        39        37        35        38        40
        37        35        38        41        38        41        44        45
        38        41        44        46        38        41        44        47
        39        38        41        42        39        38        41        43
        39        38        41        44        40        38        41        42
        40        38        41        43        40        38        41        44
        42        41        44        45        42        41        44        46
        42        41        44        47        43        41        44        45
        43        41        44        46        43        41        44        47
        51        55        57        58        51        55        57        59
        51        55        57        60        51        55        75        76
        51        55        75        77        52        51        55        56
        52        51        55        57        52        51        55        75
        53        51        55        56        53        51        55        57
        53        51        55        75        54        51        55        56
        54        51        55        57        54        51        55        75
        55        57        60        61        55        57        60        62
        55        57        60        63        56        55        57        58
        56        55        57        59        56        55        57        60
        56        55        75        76        56        55        75        77
        57        55        75        76        57        55        75        77
        57        60        63        64        57        60        63        65
        57        60        63        66        58        57        55        75
        58        57        60        61        58        57        60        62
        58        57        60        63        59        57        55        75
        59        57        60        61        59        57        60        62
        59        57        60        63        60        57        55        75
        60        63        66        67        60        63        66        68
        61        60        63        64        61        60        63        65
        61        60        63        66        62        60        63        64
        62        60        63        65        62        60        63        66
        63        66        68        69        63        66        68        72
        64        63        66        67        64        63        66        68
        65        63        66        67        65        63        66        68
        66        68        69        70        66        68        69        71
        66        68        72        73        66        68        72        74
        67        66        68        69        67        66        68        72
        69        68        72        73        69        68        72        74
        70        69        68        72        71        69        68        72
        78        81        89        86        78        81        89        90
        78        81        89        91        78        84        86        87
        78        84        86        88        78        84        86        89
        78        84        92        93        78        84        92        94
        79        78        81        82        79        78        81        83
        79        78        81        89        79        78        84        85
        79        78        84        86        79        78        84        92
        80        78        81        82        80        78        81        83
        80        78        81        89        80        78        84        85
        80        78        84        86        80        78        84        92
        81        78        84        85        81        78        84        86
        81        78        84        92        81        89        86        84
        81        89        86        87        81        89        86        88
        82        81        78        84        82        81        89        86
        82        81        89        90        82        81        89        91
        83        81        78        84        83        81        89        86
        83        81        89        90        83        81        89        91
        84        78        81        89        84        86        89        90
        84        86        89        91        85        84        86        87
        85        84        86        88        85        84        86        89
        85        84        92        93        85        84        92        94
        86        84        92        93        86        84        92        94
        87        86        84        92        87        86        89        90
        87        86        89        91        88        86        84        92
        88        86        89        90        88        86        89        91
        89        86        84        92        95        99       101       102
        95        99       101       103        95        99       101       104
        95        99       117       118        95        99       117       119
        96        95        99       100        96        95        99       101
        96        95        99       117        97        95        99       100
        97        95        99       101        97        95        99       117
        98        95        99       100        98        95        99       101
        98        95        99       117        99       101       104       105
        99       101       104       106        99       101       104       107
       100        99       101       102       100        99       101       103
       100        99       101       104       100        99       117       118
       100        99       117       119       101        99       117       118
       101        99       117       119       101       104       107       108
       101       104       107       109       101       104       107       110
       102       101        99       117       102       101       104       105
       102       101       104       106       102       101       104       107
       103       101        99       117       103       101       104       105
       103       101       104       106       103       101       104       107
       104       101        99       117       104       107       110       111
       104       107       110       112       104       107       110       113
       105       104       107       108       105       104       107       109
       105       104       107       110       106       104       107       108
       106       104       107       109       106       104       107       110
       107       110       113       114       107       110       113       115
       107       110       113       116       108       107       110       111
       108       107       110       112       108       107       110       113
       109       107       110       111       109       107       110       112
       109       107       110       113       111       110       113       114
       111       110       113       115       111       110       113       116
       112       110       113       114       112       110       113       115
       112       110       113       116       120       123       131       128
       120       123       131       132       120       123       131       133
       120       126       128       129       120       126       128       130
       120       126       128       131       120       126       134       135
       120       126       134       136       121       120       123       124
       121       120       123       125       121       120       123       131
       121       120       126       127       121       120       126       128
       121       120       126       134       122       120       123       124
       122       120       123       125       122       120       123       131
       122       120       126       127       122       120       126       128
       122       120       126       134       123       120       126       127
       123       120       126       128       123       120       126       134
       123       131       128       126       123       131       128       129
       123       131       128       130       124       123       120       126
       124       123       131       128       124       123       131       132
       124       123       131       133       125       123       120       126
       125       123       131       128       125       123       131       132
       125       123       131       133       126       120       123       131
       126       128       131       132       126       128       131       133
       127       126       128       129       127       126       128       130
       127       126       128       131       127       126       134       135
       127       126       134       136       128       126       134       135
       128       126       134       136       129       128       126       134
       129       128       131       132       129       128       131       133
       130       128       126       134       130       128       131       132
       130       128       131       133       131       128       126       134
       137       138       153       154       137       138       153       155
       137       138       153       159       138       137       141       142
       138       137       141       143       138       137       141       144
       138       137       145       146       138       137       145       147
       138       137       145       148       138       137       149       150
       138       137       149       151       138       137       149       152
       138       153       159       156       139       138       137       141
       139       138       137       145       139       138       137       149
       139       138       153       154       139       138       153       155
       139       138       153       159       140       138       137       141
       140       138       137       145       140       138       137       149
       140       138       153       154       140       138       153       155
       140       138       153       159       141       137       138       153
       141       137       145       146       141       137       145       147
       141       137       145       148       141       137       149       150
       141       137       149       151       141       137       149       152
       142       141       137       145       142       141       137       149
       143       141       137       145       143       141       137       149
       144       141       137       145       144       141       137       149
       145       137       138       153       145       137       149       150
       145       137       149       151       145       137       149       152
       146       145       137       149       147       145       137       149
       148       145       137       149       149       137       138       153
       153       159       156       157       153       159       156       158
       153       159       156       160       154       153       159       156
       155       153       159       156       156       160       161       162
       156       160       161       163       156       160       161       164
       157       156       160       161       158       156       160       161
       159       156       160       161       160       161       164       165
       160       161       164       166       160       161       164       172
       161       164       166       167       161       164       172       173
       161       164       172       174       161       164       172       175
       162       161       164       165       162       161       164       166
       162       161       164       172       163       161       164       165
       163       161       164       166       163       161       164       172
       164       166       167       168       164       166       167       169
       164       172       175       176       165       164       166       167
       165       164       172       173       165       164       172       174
       165       164       172       175       166       164       172       173
       166       164       172       174       166       164       172       175
       166       167       169       170       166       167       169       171
       166       167       169       181       167       166       164       172
       167       169       181       182       167       169       181       183
       167       169       181       184       168       167       169       170
       168       167       169       171       168       167       169       181
       169       181       184       185       169       181       184       186
       169       181       184       187       170       169       181       182
       170       169       181       183       170       169       181       184
       171       169       181       182       171       169       181       183
       171       169       181       184       172       175       176       177
       172       175       176       178       173       172       175       176
       174       172       175       176       175       176       178       179
       175       176       178       180       175       176       178       228
       176       178       228       229       176       178       228       230
       176       178       228       231       177       176       178       179
       177       176       178       180       177       176       178       228
       178       228       231       232       178       228       231       233
       178       228       231       234       179       178       228       229
       179       178       228       230       179       178       228       231
       180       178       228       229       180       178       228       230
       180       178       228       231       181       184       187       188
       181       184       187       189       181       184       187       190
       182       181       184       185       182       181       184       186
       182       181       184       187       183       181       184       185
       183       181       184       186       183       181       184       187
       184       187       190       191       184       187       190       192
       184       187       190       193       185       184       187       188
       185       184       187       189       185       184       187       190
       186       184       187       188       186       184       187       189
       186       184       187       190       187       190       193       194
       187       190       193       195       187       190       193       196
       188       187       190       191       188       187       190       192
       188       187       190       193       189       187       190       191
       189       187       190       192       189       187       190       193
       190       193       196       197       190       193       196       198
       190       193       196       199       191       190       193       194
       191       190       193       195       191       190       193       196
       192       190       193       194       192       190       193       195
       192       190       193       196       193       196       199       200
       193       196       199       201       194       193       196       197
       194       193       196       198       194       193       196       199
       195       193       196       197       195       193       196       198
       195       193       196       199       196       199       201       202
       196       199       201       203       197       196       199       200
       197       196       199       201       198       196       199       200
       198       196       199       201       199       201       203       204
       199       201       203       205       199       201       203       206
       200       199       201       202       200       199       201       203
       201       203       206       207       201       203       206       208
       201       203       206       209       202       201       203       204
       202       201       203       205       202       201       203       206
       203       206       209       210       203       206       209       211
       203       206       209       212       204       203       206       207
       204       203       206       208       204       203       206       209
       205       203       206       207       205       203       206       208
       205       203       206       209       206       209       212       213
       206       209       212       214       206       209       212       215
       207       206       209       210       207       206       209       211
       207       206       209       212       208       206       209       210
       208       206       209       211       208       206       209       212
       209       212       215       216       209       212       215       217
       209       212       215       218       210       209       212       213
       210       209       212       214       210       209       212       215
       211       209       212       213       211       209       212       214
       211       209       212       215       212       215       218       219
       212       215       218       220       212       215       218       221
       213       212       215       216       213       212       215       217
       213       212       215       218       214       212       215       216
       214       212       215       217       214       212       215       218
       215       218       221       222       215       218       221       223
       215       218       221       224       216       215       218       219
       216       215       218       220       216       215       218       221
       217       215       218       219       217       215       218       220
       217       215       218       221       218       221       224       225
       218       221       224       226       218       221       224       227
       219       218       221       222       219       218       221       223
       219       218       221       224       220       218       221       222
       220       218       221       223       220       218       221       224
       222       221       224       225       222       221       224       226
       222       221       224       227       223       221       224       225
       223       221       224       226       223       221       224       227
       228       231       234       235       228       231       234       236
       228       231       234       237       229       228       231       232
       229       228       231       233       229       228       231       234
       230       228       231       232       230       228       231       233
       230       228       231       234       231       234       237       238
       231       234       237       239       231       234       237       240
       232       231       234       235       232       231       234       236
       232       231       234       237       233       231       234       235
       233       231       234       236       233       231       234       237
       234       237       240       241       234       237       240       242
       234       237       240       243       235       234       237       238
       235       234       237       239       235       234       237       240
       236       234       237       238       236       234       237       239
       236       234       237       240       237       240       243       244
       237       240       243       245       237       240       243       246
       238       237       240       241       238       237       240       242
       238       237       240       243       239       237       240       241
       239       237       240       242       239       237       240       243
       240       243       246       247       240       243       246       248
       240       243       246       249       241       240       243       244
       241       240       243       245       241       240       243       246
       242       240       243       244       242       240       243       245
       242       240       243       246       243       246       249       250
       243       246       249       251       243       246       249       252
       244       243       246       247       244       243       246       248
       244       243       246       249       245       243       246       247
       245       243       246       248       245       243       246       249
       246       249       252       253       246       249       252       254
       246       249       252       255       247       246       249       250
       247       246       249       251       247       246       249       252
       248       246       249       250       248       246       249       251
       248       246       249       252       249       252       255       256
       249       252       255       257       249       252       255       258
       250       249       252       253       250       249       252       254
       250       249       252       255       251       249       252       253
       251       249       252       254       251       249       252       255
       252       255       258       259       252       255       258       260
       252       255       258       261       253       252       255       256
       253       252       255       257       253       252       255       258
       254       252       255       256       254       252       255       257
       254       252       255       258       255       258       261       262
       255       258       261       263       255       258       261       264
       256       255       258       259       256       255       258       260
       256       255       258       261       257       255       258       259
       257       255       258       260       257       255       258       261
       258       261       264       265       258       261       264       266
       258       261       264       267       259       258       261       262
       259       258       261       263       259       258       261       264
       260       258       261       262       260       258       261       263
       260       258       261       264       261       264       267       268
       261       264       267       269       261       264       267       270
       262       261       264       265       262       261       264       266
       262       261       264       267       263       261       264       265
       263       261       264       266       263       261       264       267
       265       264       267       268       265       264       267       269
       265       264       267       270       266       264       267       268
       266       264       267       269       266       264       267       270
       271       272       287       288       271       272       287       289
       271       272       287       293       272       271       275       276
       272       271       275       277       272       271       275       278
       272       271       279       280       272       271       279       281
       272       271       279       282       272       271       283       284
       272       271       283       285       272       271       283       286
       272       287       293       290       273       272       271       275
       273       272       271       279       273       272       271       283
       273       272       287       288       273       272       287       289
       273       272       287       293       274       272       271       275
       274       272       271       279       274       272       271       283
       274       272       287       288       274       272       287       289
       274       272       287       293       275       271       272       287
       275       271       279       280       275       271       279       281
       275       271       279       282       275       271       283       284
       275       271       283       285       275       271       283       286
       276       275       271       279       276       275       271       283
       277       275       271       279       277       275       271       283
       278       275       271       279       278       275       271       283
       279       271       272       287       279       271       283       284
       279       271       283       285       279       271       283       286
       280       279       271       283       281       279       271       283
       282       279       271       283       283       271       272       287
       287       293       290       291       287       293       290       292
       287       293       290       294       288       287       293       290
       289       287       293       290       290       294       295       296
       290       294       295       297       290       294       295       298
       291       290       294       295       292       290       294       295
       293       290       294       295       294       295       298       299
       294       295       298       300       294       295       298       306
       295       298       300       301       295       298       306       307
       295       298       306       308       295       298       306       309
       296       295       298       299       296       295       298       300
       296       295       298       306       297       295       298       299
       297       295       298       300       297       295       298       306
       298       300       301       302       298       300       301       303
       298       306       309       310       299       298       300       301
       299       298       306       307       299       298       306       308
       299       298       306       309       300       298       306       307
       300       298       306       308       300       298       306       309
       300       301       303       304       300       301       303       305
       300       301       303       315       301       300       298       306
       301       303       315       316       301       303       315       317
       301       303       315       318       302       301       303       304
       302       301       303       305       302       301       303       315
       303       315       318       319       303       315       318       320
       303       315       318       321       304       303       315       316
       304       303       315       317       304       303       315       318
       305       303       315       316       305       303       315       317
       305       303       315       318       306       309       310       311
       306       309       310       312       307       306       309       310
       308       306       309       310       309       310       312       313
       309       310       312       314       309       310       312       362
       310       312       362       363       310       312       362       364
       310       312       362       365       311       310       312       313
       311       310       312       314       311       310       312       362
       312       362       365       366       312       362       365       367
       312       362       365       368       313       312       362       363
       313       312       362       364       313       312       362       365
       314       312       362       363       314       312       362       364
       314       312       362       365       315       318       321       322
       315       318       321       323       315       318       321       324
       316       315       318       319       316       315       318       320
       316       315       318       321       317       315       318       319
       317       315       318       320       317       315       318       321
       318       321       324       325       318       321       324       326
       318       321       324       327       319       318       321       322
       319       318       321       323       319       318       321       324
       320       318       321       322       320       318       321       323
       320       318       321       324       321       324       327       328
       321       324       327       329       321       324       327       330
       322       321       324       325       322       321       324       326
       322       321       324       327       323       321       324       325
       323       321       324       326       323       321       324       327
       324       327       330       331       324       327       330       332
       324       327       330       333       325       324       327       328
       325       324       327       329       325       324       327       330
       326       324       327       328       326       324       327       329
       326       324       327       330       327       330       333       334
       327       330       333       335       328       327       330       331
       328       327       330       332       328       327       330       333
       329       327       330       331       329       327       330       332
       329       327       330       333       330       333       335       336
       330       333       335       337       331       330       333       334
       331       330       333       335       332       330       333       334
       332       330       333       335       333       335       337       338
       333       335       337       339       333       335       337       340
       334       333       335       336       334       333       335       337
       335       337       340       341       335       337       340       342
       335       337       340       343       336       335       337       338
       336       335       337       339       336       335       337       340
       337       340       343       344       337       340       343       345
       337       340       343       346       338       337       340       341
       338       337       340       342       338       337       340       343
       339       337       340       341       339       337       340       342
       339       337       340       343       340       343       346       347
       340       343       346       348       340       343       346       349
       341       340       343       344       341       340       343       345
       341       340       343       346       342       340       343       344
       342       340       343       345       342       340       343       346
       343       346       349       350       343       346       349       351
       343       346       349       352       344       343       346       347
       344       343       346       348       344       343       346       349
       345       343       346       347       345       343       346       348
       345       343       346       349       346       349       352       353
       346       349       352       354       346       349       352       355
       347       346       349       350       347       346       349       351
       347       346       349       352       348       346       349       350
       348       346       349       351       348       346       349       352
       349       352       355       356       349       352       355       357
       349       352       355       358       350       349       352       353
       350       349       352       354       350       349       352       355
       351       349       352       353       351       349       352       354
       351       349       352       355       352       355       358       359
       352       355       358       360       352       355       358       361
       353       352       355       356       353       352       355       357
       353       352       355       358       354       352       355       356
       354       352       355       357       354       352       355       358
       356       355       358       359       356       355       358       360
       356       355       358       361       357       355       358       359
       357       355       358       360       357       355       358       361
       362       365       368       369       362       365       368       370
       362       365       368       371       363       362       365       366
       363       362       365       367       363       362       365       368
       364       362       365       366       364       362       365       367
       364       362       365       368       365       368       371       372
       365       368       371       373       365       368       371       374
       366       365       368       369       366       365       368       370
       366       365       368       371       367       365       368       369
       367       365       368       370       367       365       368       371
       368       371       374       375       368       371       374       376
       368       371       374       377       369       368       371       372
       369       368       371       373       369       368       371       374
       370       368       371       372       370       368       371       373
       370       368       371       374       371       374       377       378
       371       374       377       379       371       374       377       380
       372       371       374       375       372       371       374       376
       372       371       374       377       373       371       374       375
       373       371       374       376       373       371       374       377
       374       377       380       381       374       377       380       382
       374       377       380       383       375       374       377       378
       375       374       377       379       375       374       377       380
       376       374       377       378       376       374       377       379
       376       374       377       380       377       380       383       384
       377       380       383       385       377       380       383       386
       378       377       380       381       378       377       380       382
       378       377       380       383       379       377       380       381
       379       377       380       382       379       377       380       383
       380       383       386       387       380       383       386       388
       380       383       386       389       381       380       383       384
       381       380       383       385       381       380       383       386
       382       380       383       384       382       380       383       385
       382       380       383       386       383       386       389       390
       383       386       389       391       383       386       389       392
       384       383       386       387       384       383       386       388
       384       383       386       389       385       383       386       387
       385       383       386       388       385       383       386       389
       386       389       392       393       386       389       392       394
       386       389       392       395       387       386       389       390
       387       386       389       391       387       386       389       392
       388       386       389       390       388       386       389       391
       388       386       389       392       389       392       395       396
       389       392       395       397       389       392       395       398
       390       389       392       393       390       389       392       394
       390       389       392       395       391       389       392       393
       391       389       392       394       391       389       392       395
       392       395       398       399       392       395       398       400
       392       395       398       401       393       392       395       396
       393       392       395       397       393       392       395       398
       394       392       395       396       394       392       395       397
       394       392       395       398       395       398       401       402
       395       398       401       403       395       398       401       404
       396       395       398       399       396       395       398       400
       396       395       398       401       397       395       398       399
       397       395       398       400       397       395       398       401
       399       398       401       402       399       398       401       403
       399       398       401       404       400       398       401       402
       400       398       401       403       400       398       401       404
       405       406       421       422       405       406       421       423
       405       406       421       427       406       405       409       410
       406       405       409       411       406       405       409       412
       406       405       413       414       406       405       413       415
       406       405       413       416       406       405       417       418
       406       405       417       419       406       405       417       420
       406       421       427       424       407       406       405       409
       407       406       405       413       407       406       405       417
       407       406       421       422       407       406       421       423
       407       406       421       427       408       406       405       409
       408       406       405       413       408       406       405       417
       408       406       421       422       408       406       421       423
       408       406       421       427       409       405       406       421
       409       405       413       414       409       405       413       415
       409       405       413       416       409       405       417       418
       409       405       417       419       409       405       417       420
       410       409       405       413       410       409       405       417
       411       409       405       413       411       409       405       417
       412       409       405       413       412       409       405       417
       413       405       406       421       413       405       417       418
       413       405       417       419       413       405       417       420
       414       413       405       417       415       413       405       417
       416       413       405       417       417       405       406       421
       421       427       424       425       421       427       424       426
       421       427       424       428       422       421       427       424
       423       421       427       424       424       428       429       430
       424       428       429       431       424       428       429       432
       425       424       428       429       426       424       428       429
       427       424       428       429       428       429       432       433
       428       429       432       434       428       429       432       440
       429       432       434       435       429       432       440       441
       429       432       440       442       429       432       440       443
       430       429       432       433       430       429       432       434
       430       429       432       440       431       429       432       433
       431       429       432       434       431       429       432       440
       432       434       435       436       432       434       435       437
       432       440       443       444       433       432       434       435
       433       432       440       441       433       432       440       442
       433       432       440       443       434       432       440       441
       434       432       440       442       434       432       440       443
       434       435       437       438       434       435       437       439
       434       435       437       449       435       434       432       440
       435       437       449       450       435       437       449       451
       435       437       449       452       436       435       437       438
       436       435       437       439       436       435       437       449
       437       449       452       453       437       449       452       454
       437       449       452       455       438       437       449       450
       438       437       449       451       438       437       449       452
       439       437       449       450       439       437       449       451
       439       437       449       452       440       443       444       445
       440       443       444       446       441       440       443       444
       442       440       443       444       443       444       446       447
       443       444       446       448       443       444       446       496
       444       446       496       497       444       446       496       498
       444       446       496       499       445       444       446       447
       445       444       446       448       445       444       446       496
       446       496       499       500       446       496       499       501
       446       496       499       502       447       446       496       497
       447       446       496       498       447       446       496       499
       448       446       496       497       448       446       496       498
       448       446       496       499       449       452       455       456
       449       452       455       457       449       452       455       458
       450       449       452       453       450       449       452       454
       450       449       452       455       451       449       452       453
       451       449       452       454       451       449       452       455
       452       455       458       459       452       455       458       460
       452       455       458       461       453       452       455       456
       453       452       455       457       453       452       455       458
       454       452       455       456       454       452       455       457
       454       452       455       458       455       458       461       462
       455       458       461       463       455       458       461       464
       456       455       458       459       456       455       458       460
       456       455       458       461       457       455       458       459
       457       455       458       460       457       455       458       461
       458       461       464       465       458       461       464       466
       458       461       464       467       459       458       461       462
       459       458       461       463       459       458       461       464
       460       458       461       462       460       458       461       463
       460       458       461       464       461       464       467       468
       461       464       467       469       462       461       464       465
       462       461       464       466       462       461       464       467
       463       461       464       465       463       461       464       466
       463       461       464       467       464       467       469       470
       464       467       469       471       465       464       467       468
       465       464       467       469       466       464       467       468
       466       464       467       469       467       469       471       472
       467       469       471       473       467       469       471       474
       468       467       469       470       468       467       469       471
       469       471       474       475       469       471       474       476
       469       471       474       477       470       469       471       472
       470       469       471       473       470       469       471       474
       471       474       477       478       471       474       477       479
       471       474       477       480       472       471       474       475
       472       471       474       476       472       471       474       477
       473       471       474       475       473       471       474       476
       473       471       474       477       474       477       480       481
       474       477       480       482       474       477       480       483
       475       474       477       478       475       474       477       479
       475       474       477       480       476       474       477       478
       476       474       477       479       476       474       477       480
       477       480       483       484       477       480       483       485
       477       480       483       486       478       477       480       481
       478       477       480       482       478       477       480       483
       479       477       480       481       479       477       480       482
       479       477       480       483       480       483       486       487
       480       483       486       488       480       483       486       489
       481       480       483       484       481       480       483       485
       481       480       483       486       482       480       483       484
       482       480       483       485       482       480       483       486
       483       486       489       490       483       486       489       491
       483       486       489       492       484       483       486       487
       484       483       486       488       484       483       486       489
       485       483       486       487       485       483       486       488
       485       483       486       489       486       489       492       493
       486       489       492       494       486       489       492       495
       487       486       489       490       487       486       489       491
       487       486       489       492       488       486       489       490
       488       486       489       491       488       486       489       492
       490       489       492       493       490       489       492       494
       490       489       492       495       491       489       492       493
       491       489       492       494       491       489       492       495
       496       499       502       503       496       499       502       504
       496       499       502       505       497       496       499       500
       497       496       499       501       497       496       499       502
       498       496       499       500       498       496       499       501
       498       496       499       502       499       502       505       506
       499       502       505       507       499       502       505       508
       500       499       502       503       500       499       502       504
       500       499       502       505       501       499       502       503
       501       499       502       504       501       499       502       505
       502       505       508       509       502       505       508       510
       502       505       508       511       503       502       505       506
       503       502       505       507       503       502       505       508
       504       502       505       506       504       502       505       507
       504       502       505       508       505       508       511       512
       505       508       511       513       505       508       511       514
       506       505       508       509       506       505       508       510
       506       505       508       511       507       505       508       509
       507       505       508       510       507       505       508       511
       508       511       514       515       508       511       514       516
       508       511       514       517       509       508       511       512
       509       508       511       513       509       508       511       514
       510       508       511       512       510       508       511       513
       510       508       511       514       511       514       517       518
       511       514       517       519       511       514       517       520
       512       511       514       515       512       511       514       516
       512       511       514       517       513       511       514       515
       513       511       514       516       513       511       514       517
       514       517       520       521       514       517       520       522
       514       517       520       523       515       514       517       518
       515       514       517       519       515       514       517       520
       516       514       517       518       516       514       517       519
       516       514       517       520       517       520       523       524
       517       520       523       525       517       520       523       526
       518       517       520       521       518       517       520       522
       518       517       520       523       519       517       520       521
       519       517       520       522       519       517       520       523
       520       523       526       527       520       523       526       528
       520       523       526       529       521       520       523       524
       521       520       523       525       521       520       523       526
       522       520       523       524       522       520       523       525
       522       520       523       526       523       526       529       530
       523       526       529       531       523       526       529       532
       524       523       526       527       524       523       526       528
       524       523       526       529       525       523       526       527
       525       523       526       528       525       523       526       529
       526       529       532       533       526       529       532       534
       526       529       532       535       527       526       529       530
       527       526       529       531       527       526       529       532
       528       526       529       530       528       526       529       531
       528       526       529       532       529       532       535       536
       529       532       535       537       529       532       535       538
       530       529       532       533       530       529       532       534
       530       529       532       535       531       529       532       533
       531       529       532       534       531       529       532       535
       533       532       535       536       533       532       535       537
       533       532       535       538       534       532       535       536
       534       532       535       537       534       532       535       538
       539       540       555       556       539       540       555       557
       539       540       555       561       540       539       543       544
       540       539       543       545       540       539       543       546
       540       539       547       548       540       539       547       549
       540       539       547       550       540       539       551       552
       540       539       551       553       540       539       551       554
       540       555       561       558       541       540       539       543
       541       540       539       547       541       540       539       551
       541       540       555       556       541       540       555       557
       541       540       555       561       542       540       539       543
       542       540       539       547       542       540       539       551
       542       540       555       556       542       540       555       557
       542       540       555       561       543       539       540       555
       543       539       547       548       543       539       547       549
       543       539       547       550       543       539       551       552
       543       539       551       553       543       539       551       554
       544       543       539       547       544       543       539       551
       545       543       539       547       545       543       539       551
       546       543       539       547       546       543       539       551
       547       539       540       555       547       539       551       552
       547       539       551       553       547       539       551       554
       548       547       539       551       549       547       539       551
       550       547       539       551       551       539       540       555
       555       561       558       559       555       561       558       560
       555       561       558       562       556       555       561       558
       557       555       561       558       558       562       563       564
       558       562       563       565       558       562       563       566
       559       558       562       563       560       558       562       563
       561       558       562       563       562       563       566       567
       562       563       566       568       562       563       566       574
       563       566       568       569       563       566       574       575
       563       566       574       576       563       566       574       577
       564       563       566       567       564       563       566       568
       564       563       566       574       565       563       566       567
       565       563       566       568       565       563       566       574
       566       568       569       570       566       568       569       571
       566       574       577       578       567       566       568       569
       567       566       574       575       567       566       574       576
       567       566       574       577       568       566       574       575
       568       566       574       576       568       566       574       577
       568       569       571       572       568       569       571       573
       568       569       571       583       569       568       566       574
       569       571       583       584       569       571       583       585
       569       571       583       586       570       569       571       572
       570       569       571       573       570       569       571       583
       571       583       586       587       571       583       586       588
       571       583       586       589       572       571       583       584
       572       571       583       585       572       571       583       586
       573       571       583       584       573       571       583       585
       573       571       583       586       574       577       578       579
       574       577       578       580       575       574       577       578
       576       574       577       578       577       578       580       581
       577       578       580       582       577       578       580       630
       578       580       630       631       578       580       630       632
       578       580       630       633       579       578       580       581
       579       578       580       582       579       578       580       630
       580       630       633       634       580       630       633       635
       580       630       633       636       581       580       630       631
       581       580       630       632       581       580       630       633
       582       580       630       631       582       580       630       632
       582       580       630       633       583       586       589       590
       583       586       589       591       583       586       589       592
       584       583       586       587       584       583       586       588
       584       583       586       589       585       583       586       587
       585       583       586       588       585       583       586       589
       586       589       592       593       586       589       592       594
       586       589       592       595       587       586       589       590
       587       586       589       591       587       586       589       592
       588       586       589       590       588       586       589       591
       588       586       589       592       589       592       595       596
       589       592       595       597       589       592       595       598
       590       589       592       593       590       589       592       594
       590       589       592       595       591       589       592       593
       591       589       592       594       591       589       592       595
       592       595       598       599       592       595       598       600
       592       595       598       601       593       592       595       596
       593       592       595       597       593       592       595       598
       594       592       595       596       594       592       595       597
       594       592       595       598       595       598       601       602
       595       598       601       603       596       595       598       599
       596       595       598       600       596       595       598       601
       597       595       598       599       597       595       598       600
       597       595       598       601       598       601       603       604
       598       601       603       605       599       598       601       602
       599       598       601       603       600       598       601       602
       600       598       601       603       601       603       605       606
       601       603       605       607       601       603       605       608
       602       601       603       604       602       601       603       605
       603       605       608       609       603       605       608       610
       603       605       608       611       604       603       605       606
       604       603       605       607       604       603       605       608
       605       608       611       612       605       608       611       613
       605       608       611       614       606       605       608       609
       606       605       608       610       606       605       608       611
       607       605       608       609       607       605       608       610
       607       605       608       611       608       611       614       615
       608       611       614       616       608       611       614       617
       609       608       611       612       609       608       611       613
       609       608       611       614       610       608       611       612
       610       608       611       613       610       608       611       614
       611       614       617       618       611       614       617       619
       611       614       617       620       612       611       614       615
       612       611       614       616       612       611       614       617
       613       611       614       615       613       611       614       616
       613       611       614       617       614       617       620       621
       614       617       620       622       614       617       620       623
       615       614       617       618       615       614       617       619
       615       614       617       620       616       614       617       618
       616       614       617       619       616       614       617       620
       617       620       623       624       617       620       623       625
       617       620       623       626       618       617       620       621
       618       617       620       622       618       617       620       623
       619       617       620       621       619       617       620       622
       619       617       620       623       620       623       626       627
       620       623       626       628       620       623       626       629
       621       620       623       624       621       620       623       625
       621       620       623       626       622       620       623       624
       622       620       623       625       622       620       623       626
       624       623       626       627       624       623       626       628
       624       623       626       629       625       623       626       627
       625       623       626       628       625       623       626       629
       630       633       636       637       630       633       636       638
       630       633       636       639       631       630       633       634
       631       630       633       635       631       630       633       636
       632       630       633       634       632       630       633       635
       632       630       633       636       633       636       639       640
       633       636       639       641       633       636       639       642
       634       633       636       637       634       633       636       638
       634       633       636       639       635       633       636       637
       635       633       636       638       635       633       636       639
       636       639       642       643       636       639       642       644
       636       639       642       645       637       636       639       640
       637       636       639       641       637       636       639       642
       638       636       639       640       638       636       639       641
       638       636       639       642       639       642       645       646
       639       642       645       647       639       642       645       648
       640       639       642       643       640       639       642       644
       640       639       642       645       641       639       642       643
       641       639       642       644       641       639       642       645
       642       645       648       649       642       645       648       650
       642       645       648       651       643       642       645       646
       643       642       645       647       643       642       645       648
       644       642       645       646       644       642       645       647
       644       642       645       648       645       648       651       652
       645       648       651       653       645       648       651       654
       646       645       648       649       646       645       648       650
       646       645       648       651       647       645       648       649
       647       645       648       650       647       645       648       651
       648       651       654       655       648       651       654       656
       648       651       654       657       649       648       651       652
       649       648       651       653       649       648       651       654
       650       648       651       652       650       648       651       653
       650       648       651       654       651       654       657       658
       651       654       657       659       651       654       657       660
       652       651       654       655       652       651       654       656
       652       651       654       657       653       651       654       655
       653       651       654       656       653       651       654       657
       654       657       660       661       654       657       660       662
       654       657       660       663       655       654       657       658
       655       654       657       659       655       654       657       660
       656       654       657       658       656       654       657       659
       656       654       657       660       657       660       663       664
       657       660       663       665       657       660       663       666
       658       657       660       661       658       657       660       662
       658       657       660       663       659       657       660       661
       659       657       660       662       659       657       660       663
       660       663       666       667       660       663       666       668
       660       663       666       669       661       660       663       664
       661       660       663       665       661       660       663       666
       662       660       663       664       662       660       663       665
       662       660       663       666       663       666       669       670
       663       666       669       671       663       666       669       672
       664       663       666       667       664       663       666       668
       664       663       666       669       665       663       666       667
       665       663       666       668       665       663       666       669
       667       666       669       670       667       666       669       671
       667       666       669       672       668       666       669       670
       668       666       669       671       668       666       669       672
       673       674       689       690       673       674       689       691
       673       674       689       695       674       673       677       678
       674       673       677       679       674       673       677       680
       674       673       681       682       674       673       681       683
       674       673       681       684       674       673       685       686
       674       673       685       687       674       673       685       688
       674       689       695       692       675       674       673       677
       675       674       673       681       675       674       673       685
       675       674       689       690       675       674       689       691
       675       674       689       695       676       674       673       677
       676       674       673       681       676       674       673       685
       676       674       689       690       676       674       689       691
       676       674       689       695       677       673       674       689
       677       673       681       682       677       673       681       683
       677       673       681       684       677       673       685       686
       677       673       685       687       677       673       685       688
       678       677       673       681       678       677       673       685
       679       677       673       681       679       677       673       685
       680       677       673       681       680       677       673       685
       681       673       674       689       681       673       685       686
       681       673       685       687       681       673       685       688
       682       681       673       685       683       681       673       685
       684       681       673       685       685       673       674       689
       689       695       692       693       689       695       692       694
       689       695       692       696       690       689       695       692
       691       689       695       692       692       696       697       698
       692       696       697       699       692       696       697       700
       693       692       696       697       694       692       696       697
       695       692       696       697       696       697       700       701
       696       697       700       702       696       697       700       708
       697       700       702       703       697       700       708       709
       697       700       708       710       697       700       708       711
       698       697       700       701       698       697       700       702
       698       697       700       708       699       697       700       701
       699       697       700       702       699       697       700       708
       700       702       703       704       700       702       703       705
       700       708       711       712       701       700       702       703
       701       700       708       709       701       700       708       710
       701       700       708       711       702       700       708       709
       702       700       708       710       702       700       708       711
       702       703       705       706       702       703       705       707
       702       703       705       717       703       702       700       708
       703       705       717       718       703       705       717       719
       703       705       717       720       704       703       705       706
       704       703       705       707       704       703       705       717
       705       717       720       721       705       717       720       722
       705       717       720       723       706       705       717       718
       706       705       717       719       706       705       717       720
       707       705       717       718       707       705       717       719
       707       705       717       720       708       711       712       713
       708       711       712       714       709       708       711       712
       710       708       711       712       711       712       714       715
       711       712       714       716       711       712       714       764
       712       714       764       765       712       714       764       766
       712       714       764       767       713       712       714       715
       713       712       714       716       713       712       714       764
       714       764       767       768       714       764       767       769
       714       764       767       770       715       714       764       765
       715       714       764       766       715       714       764       767
       716       714       764       765       716       714       764       766
       716       714       764       767       717       720       723       724
       717       720       723       725       717       720       723       726
       718       717       720       721       718       717       720       722
       718       717       720       723       719       717       720       721
       719       717       720       722       719       717       720       723
       720       723       726       727       720       723       726       728
       720       723       726       729       721       720       723       724
       721       720       723       725       721       720       723       726
       722       720       723       724       722       720       723       725
       722       720       723       726       723       726       729       730
       723       726       729       731       723       726       729       732
       724       723       726       727       724       723       726       728
       724       723       726       729       725       723       726       727
       725       723       726       728       725       723       726       729
       726       729       732       733       726       729       732       734
       726       729       732       735       727       726       729       730
       727       726       729       731       727       726       729       732
       728       726       729       730       728       726       729       731
       728       726       729       732       729       732       735       736
       729       732       735       737       730       729       732       733
       730       729       732       734       730       729       732       735
       731       729       732       733       731       729       732       734
       731       729       732       735       732       735       737       738
       732       735       737       739       733       732       735       736
       733       732       735       737       734       732       735       736
       734       732       735       737       735       737       739       740
       735       737       739       741       735       737       739       742
       736       735       737       738       736       735       737       739
       737       739       742       743       737       739       742       744
       737       739       742       745       738       737       739       740
       738       737       739       741       738       737       739       742
       739       742       745       746       739       742       745       747
       739       742       745       748       740       739       742       743
       740       739       742       744       740       739       742       745
       741       739       742       743       741       739       742       744
       741       739       742       745       742       745       748       749
       742       745       748       750       742       745       748       751
       743       742       745       746       743       742       745       747
       743       742       745       748       744       742       745       746
       744       742       745       747       744       742       745       748
       745       748       751       752       745       748       751       753
       745       748       751       754       746       745       748       749
       746       745       748       750       746       745       748       751
       747       745       748       749       747       745       748       750
       747       745       748       751       748       751       754       755
       748       751       754       756       748       751       754       757
       749       748       751       752       749       748       751       753
       749       748       751       754       750       748       751       752
       750       748       751       753       750       748       751       754
       751       754       757       758       751       754       757       759
       751       754       757       760       752       751       754       755
       752       751       754       756       752       751       754       757
       753       751       754       755       753       751       754       756
       753       751       754       757       754       757       760       761
       754       757       760       762       754       757       760       763
       755       754       757       758       755       754       757       759
       755       754       757       760       756       754       757       758
       756       754       757       759       756       754       757       760
       758       757       760       761       758       757       760       762
       758       757       760       763       759       757       760       761
       759       757       760       762       759       757       760       763
       764       767       770       771       764       767       770       772
       764       767       770       773       765       764       767       768
       765       764       767       769       765       764       767       770
       766       764       767       768       766       764       767       769
       766       764       767       770       767       770       773       774
       767       770       773       775       767       770       773       776
       768       767       770       771       768       767       770       772
       768       767       770       773       769       767       770       771
       769       767       770       772       769       767       770       773
       770       773       776       777       770       773       776       778
       770       773       776       779       771       770       773       774
       771       770       773       775       771       770       773       776
       772       770       773       774       772       770       773       775
       772       770       773       776       773       776       779       780
       773       776       779       781       773       776       779       782
       774       773       776       777       774       773       776       778
       774       773       776       779       775       773       776       777
       775       773       776       778       775       773       776       779
       776       779       782       783       776       779       782       784
       776       779       782       785       777       776       779       780
       777       776       779       781       777       776       779       782
       778       776       779       780       778       776       779       781
       778       776       779       782       779       782       785       786
       779       782       785       787       779       782       785       788
       780       779       782       783       780       779       782       784
       780       779       782       785       781       779       782       783
       781       779       782       784       781       779       782       785
       782       785       788       789       782       785       788       790
       782       785       788       791       783       782       785       786
       783       782       785       787       783       782       785       788
       784       782       785       786       784       782       785       787
       784       782       785       788       785       788       791       792
       785       788       791       793       785       788       791       794
       786       785       788       789       786       785       788       790
       786       785       788       791       787       785       788       789
       787       785       788       790       787       785       788       791
       788       791       794       795       788       791       794       796
       788       791       794       797       789       788       791       792
       789       788       791       793       789       788       791       794
       790       788       791       792       790       788       791       793
       790       788       791       794       791       794       797       798
       791       794       797       799       791       794       797       800
       792       791       794       795       792       791       794       796
       792       791       794       797       793       791       794       795
       793       791       794       796       793       791       794       797
       794       797       800       801       794       797       800       802
       794       797       800       803       795       794       797       798
       795       794       797       799       795       794       797       800
       796       794       797       798       796       794       797       799
       796       794       797       800       797       800       803       804
       797       800       803       805       797       800       803       806
       798       797       800       801       798       797       800       802
       798       797       800       803       799       797       800       801
       799       797       800       802       799       797       800       803
       801       800       803       804       801       800       803       805
       801       800       803       806       802       800       803       804
       802       800       803       805       802       800       803       806
       807       811       813       814       807       811       813       815
       807       811       816       817       807       811       816       818
       807       811       816       822       808       807       811       812
       808       807       811       813       808       807       811       816
       809       807       811       812       809       807       811       813
       809       807       811       816       810       807       811       812
       810       807       811       813       810       807       811       816
       811       816       822       819       812       811       813       814
       812       811       813       815       812       811       816       817
       812       811       816       818       812       811       816       822
       813       811       816       817       813       811       816       818
       813       811       816       822       814       813       811       816
       815       813       811       816       816       822       819       820
       816       822       819       821       816       822       819       823
       817       816       822       819       818       816       822       819
       819       823       824       825       819       823       824       826
       819       823       824       827       820       819       823       824
       821       819       823       824       822       819       823       824
       823       824       827       828       823       824       827       829
       823       824       827       835       824       827       829       830
       824       827       835       836       824       827       835       837
       824       827       835       838       825       824       827       828
       825       824       827       829       825       824       827       835
       826       824       827       828       826       824       827       829
       826       824       827       835       827       829       830       831
       827       829       830       832       827       835       838       839
       828       827       829       830       828       827       835       836
       828       827       835       837       828       827       835       838
       829       827       835       836       829       827       835       837
       829       827       835       838       829       830       832       833
       829       830       832       834       829       830       832       844
       830       829       827       835       830       832       844       845
       830       832       844       846       830       832       844       847
       831       830       832       833       831       830       832       834
       831       830       832       844       832       844       847       848
       832       844       847       849       832       844       847       850
       833       832       844       845       833       832       844       846
       833       832       844       847       834       832       844       845
       834       832       844       846       834       832       844       847
       835       838       839       840       835       838       839       841
       836       835       838       839       837       835       838       839
       838       839       841       842       838       839       841       843
       838       839       841       891       839       841       891       892
       839       841       891       893       839       841       891       894
       840       839       841       842       840       839       841       843
       840       839       841       891       841       891       894       895
       841       891       894       896       841       891       894       897
       842       841       891       892       842       841       891       893
       842       841       891       894       843       841       891       892
       843       841       891       893       843       841       891       894
       844       847       850       851       844       847       850       852
       844       847       850       853       845       844       847       848
       845       844       847       849       845       844       847       850
       846       844       847       848       846       844       847       849
       846       844       847       850       847       850       853       854
       847       850       853       855       847       850       853       856
       848       847       850       851       848       847       850       852
       848       847       850       853       849       847       850       851
       849       847       850       852       849       847       850       853
       850       853       856       857       850       853       856       858
       850       853       856       859       851       850       853       854
       851       850       853       855       851       850       853       856
       852       850       853       854       852       850       853       855
       852       850       853       856       853       856       859       860
       853       856       859       861       853       856       859       862
       854       853       856       857       854       853       856       858
       854       853       856       859       855       853       856       857
       855       853       856       858       855       853       856       859
       856       859       862       863       856       859       862       864
       857       856       859       860       857       856       859       861
       857       856       859       862       858       856       859       860
       858       856       859       861       858       856       859       862
       859       862       864       865       859       862       864       866
       860       859       862       863       860       859       862       864
       861       859       862       863       861       859       862       864
       862       864       866       867       862       864       866       868
       862       864       866       869       863       862       864       865
       863       862       864       866       864       866       869       870
       864       866       869       871       864       866       869       872
       865       864       866       867       865       864       866       868
       865       864       866       869       866       869       872       873
       866       869       872       874       866       869       872       875
       867       866       869       870       867       866       869       871
       867       866       869       872       868       866       869       870
       868       866       869       871       868       866       869       872
       869       872       875       876       869       872       875       877
       869       872       875       878       870       869       872       873
       870       869       872       874       870       869       872       875
       871       869       872       873       871       869       872       874
       871       869       872       875       872       875       878       879
       872       875       878       880       872       875       878       881
       873       872       875       876       873       872       875       877
       873       872       875       878       874       872       875       876
       874       872       875       877       874       872       875       878
       875       878       881       882       875       878       881       883
       875       878       881       884       876       875       878       879
       876       875       878       880       876       875       878       881
       877       875       878       879       877       875       878       880
       877       875       878       881       878       881       884       885
       878       881       884       886       878       881       884       887
       879       878       881       882       879       878       881       883
       879       878       881       884       880       878       881       882
       880       878       881       883       880       878       881       884
       881       884       887       888       881       884       887       889
       881       884       887       890       882       881       884       885
       882       881       884       886       882       881       884       887
       883       881       884       885       883       881       884       886
       883       881       884       887       885       884       887       888
       885       884       887       889       885       884       887       890
       886       884       887       888       886       884       887       889
       886       884       887       890       891       894       897       898
       891       894       897       899       891       894       897       900
       892       891       894       895       892       891       894       896
       892       891       894       897       893       891       894       895
       893       891       894       896       893       891       894       897
       894       897       900       901       894       897       900       902
       894       897       900       903       895       894       897       898
       895       894       897       899       895       894       897       900
       896       894       897       898       896       894       897       899
       896       894       897       900       897       900       903       904
       897       900       903       905       897       900       903       906
       898       897       900       901       898       897       900       902
       898       897       900       903       899       897       900       901
       899       897       900       902       899       897       900       903
       900       903       906       907       900       903       906       908
       900       903       906       909       901       900       903       904
       901       900       903       905       901       900       903       906
       902       900       903       904       902       900       903       905
       902       900       903       906       903       906       909       910
       903       906       909       911       903       906       909       912
       904       903       906       907       904       903       906       908
       904       903       906       909       905       903       906       907
       905       903       906       908       905       903       906       909
       906       909       912       913       906       909       912       914
       906       909       912       915       907       906       909       910
       907       906       909       911       907       906       909       912
       908       906       909       910       908       906       909       911
       908       906       909       912       909       912       915       916
       909       912       915       917       909       912       915       918
       910       909       912       913       910       909       912       914
       910       909       912       915       911       909       912       913
       911       909       912       914       911       909       912       915
       912       915       918       919       912       915       918       920
       912       915       918       921       913       912       915       916
       913       912       915       917       913       912       915       918
       914       912       915       916       914       912       915       917
       914       912       915       918       915       918       921       922
       915       918       921       923       915       918       921       924
       916       915       918       919       916       915       918       920
       916       915       918       921       917       915       918       919
       917       915       918       920       917       915       918       921
       918       921       924       925       918       921       924       926
       918       921       924       927       919       918       921       922
       919       918       921       923       919       918       921       924
       920       918       921       922       920       918       921       923
       920       918       921       924       921       924       927       928
       921       924       927       929       921       924       927       930
       922       921       924       925       922       921       924       926
       922       921       924       927       923       921       924       925
       923       921       924       926       923       921       924       927
       924       927       930       931       924       927       930       932
       924       927       930       933       925       924       927       928
       925       924       927       929       925       924       927       930
       926       924       927       928       926       924       927       929
       926       924       927       930       928       927       930       931
       928       927       930       932       928       927       930       933
       929       927       930       931       929       927       930       932
       929       927       930       933       934       935       950       951
       934       935       950       952       934       935       950       956
       935       934       938       939       935       934       938       940
       935       934       938       941       935       934       942       943
       935       934       942       944       935       934       942       945
       935       934       946       947       935       934       946       948
       935       934       946       949       935       950       956       953
       936       935       934       938       936       935       934       942
       936       935       934       946       936       935       950       951
       936       935       950       952       936       935       950       956
       937       935       934       938       937       935       934       942
       937       935       934       946       937       935       950       951
       937       935       950       952       937       935       950       956
       938       934       935       950       938       934       942       943
       938       934       942       944       938       934       942       945
       938       934       946       947       938       934       946       948
       938       934       946       949       939       938       934       942
       939       938       934       946       940       938       934       942
       940       938       934       946       941       938       934       942
       941       938       934       946       942       934       935       950
       942       934       946       947       942       934       946       948
       942       934       946       949       943       942       934       946
       944       942       934       946       945       942       934       946
       946       934       935       950       950       956       953       954
       950       956       953       955       950       956       953       957
       951       950       956       953       952       950       956       953
       953       957       958       959       953       957       958       960
       953       957       958       961       954       953       957       958
       955       953       957       958       956       953       957       958
       957       958       961       962       957       958       961       963
       957       958       961       969       958       961       963       964
       958       961       969       970       958       961       969       971
       958       961       969       972       959       958       961       962
       959       958       961       963       959       958       961       969
       960       958       961       962       960       958       961       963
       960       958       961       969       961       963       964       965
       961       963       964       966       961       969       972       973
       962       961       963       964       962       961       969       970
       962       961       969       971       962       961       969       972
       963       961       969       970       963       961       969       971
       963       961       969       972       963       964       966       967
       963       964       966       968       963       964       966       978
       964       963       961       969       964       966       978       979
       964       966       978       980       964       966       978       981
       965       964       966       967       965       964       966       968
       965       964       966       978       966       978       981       982
       966       978       981       983       966       978       981       984
       967       966       978       979       967       966       978       980
       967       966       978       981       968       966       978       979
       968       966       978       980       968       966       978       981
       969       972       973       974       969       972       973       975
       970       969       972       973       971       969       972       973
       972       973       975       976       972       973       975       977
       972       973       975      1025       973       975      1025      1026
       973       975      1025      1027       973       975      1025      1028
       974       973       975       976       974       973       975       977
       974       973       975      1025       975      1025      1028      1029
       975      1025      1028      1030       975      1025      1028      1031
       976       975      1025      1026       976       975      1025      1027
       976       975      1025      1028       977       975      1025      1026
       977       975      1025      1027       977       975      1025      1028
       978       981       984       985       978       981       984       986
       978       981       984       987       979       978       981       982
       979       978       981       983       979       978       981       984
       980       978       981       982       980       978       981       983
       980       978       981       984       981       984       987       988
       981       984       987       989       981       984       987       990
       982       981       984       985       982       981       984       986
       982       981       984       987       983       981       984       985
       983       981       984       986       983       981       984       987
       984       987       990       991       984       987       990       992
       984       987       990       993       985       984       987       988
       985       984       987       989       985       984       987       990
       986       984       987       988       986       984       987       989
       986       984       987       990       987       990       993       994
       987       990       993       995       987       990       993       996
       988       987       990       991       988       987       990       992
       988       987       990       993       989       987       990       991
       989       987       990       992       989       987       990       993
       990       993       996       997       990       993       996       998
       991       990       993       994       991       990       993       995
       991       990       993       996       992       990       993       994
       992       990       993       995       992       990       993       996
       993       996       998       999       993       996       998      1000
       994       993       996       997       994       993       996       998
       995       993       996       997       995       993       996       998
       996       998      1000      1001       996       998      1000      1002
       996       998      1000      1003       997       996       998       999
       997       996       998      1000       998      1000      1003      1004
       998      1000      1003      1005       998      1000      1003      1006
       999       998      1000      1001       999       998      1000      1002
       999       998      1000      1003      1000      1003      1006      1007
      1000      1003      1006      1008      1000      1003      1006      1009
      1001      1000      1003      1004      1001      1000      1003      1005
      1001      1000      1003      1006      1002      1000      1003      1004
      1002      1000      1003      1005      1002      1000      1003      1006
      1003      1006      1009      1010      1003      1006      1009      1011
      1003      1006      1009      1012      1004      1003      1006      1007
      1004      1003      1006      1008      1004      1003      1006      1009
      1005      1003      1006      1007      1005      1003      1006      1008
      1005      1003      1006      1009      1006      1009      1012      1013
      1006      1009      1012      1014      1006      1009      1012      1015
      1007      1006      1009      1010      1007      1006      1009      1011
      1007      1006      1009      1012      1008      1006      1009      1010
      1008      1006      1009      1011      1008      1006      1009      1012
      1009      1012      1015      1016      1009      1012      1015      1017
      1009      1012      1015      1018      1010      1009      1012      1013
      1010      1009      1012      1014      1010      1009      1012      1015
      1011      1009      1012      1013      1011      1009      1012      1014
      1011      1009      1012      1015      1012      1015      1018      1019
      1012      1015      1018      1020      1012      1015      1018      1021
      1013      1012      1015      1016      1013      1012      1015      1017
      1013      1012      1015      1018      1014      1012      1015      1016
      1014      1012      1015      1017      1014      1012      1015      1018
      1015      1018      1021      1022      1015      1018      1021      1023
      1015      1018      1021      1024      1016      1015      1018      1019
      1016      1015      1018      1020      1016      1015      1018      1021
      1017      1015      1018      1019      1017      1015      1018      1020
      1017      1015      1018      1021      1019      1018      1021      1022
      1019      1018      1021      1023      1019      1018      1021      1024
      1020      1018      1021      1022      1020      1018      1021      1023
      1020      1018      1021      1024      1025      1028      1031      1032
      1025      1028      1031      1033      1025      1028      1031      1034
      1026      1025      1028      1029      1026      1025      1028      1030
      1026      1025      1028      1031      1027      1025      1028      1029
      1027      1025      1028      1030      1027      1025      1028      1031
      1028      1031      1034      1035      1028      1031      1034      1036
      1028      1031      1034      1037      1029      1028      1031      1032
      1029      1028      1031      1033      1029      1028      1031      1034
      1030      1028      1031      1032      1030      1028      1031      1033
      1030      1028      1031      1034      1031      1034      1037      1038
      1031      1034      1037      1039      1031      1034      1037      1040
      1032      1031      1034      1035      1032      1031      1034      1036
      1032      1031      1034      1037      1033      1031      1034      1035
      1033      1031      1034      1036      1033      1031      1034      1037
      1034      1037      1040      1041      1034      1037      1040      1042
      1034      1037      1040      1043      1035      1034      1037      1038
      1035      1034      1037      1039      1035      1034      1037      1040
      1036      1034      1037      1038      1036      1034      1037      1039
      1036      1034      1037      1040      1037      1040      1043      1044
      1037      1040      1043      1045      1037      1040      1043      1046
      1038      1037      1040      1041      1038      1037      1040      1042
      1038      1037      1040      1043      1039      1037      1040      1041
      1039      1037      1040      1042      1039      1037      1040      1043
      1040      1043      1046      1047      1040      1043      1046      1048
      1040      1043      1046      1049      1041      1040      1043      1044
      1041      1040      1043      1045      1041      1040      1043      1046
      1042      1040      1043      1044      1042      1040      1043      1045
      1042      1040      1043      1046      1043      1046      1049      1050
      1043      1046      1049      1051      1043      1046      1049      1052
      1044      1043      1046      1047      1044      1043      1046      1048
      1044      1043      1046      1049      1045      1043      1046      1047
      1045      1043      1046      1048      1045      1043      1046      1049
      1046      1049      1052      1053      1046      1049      1052      1054
      1046      1049      1052      1055      1047      1046      1049      1050
      1047      1046      1049      1051      1047      1046      1049      1052
      1048      1046      1049      1050      1048      1046      1049      1051
      1048      1046      1049      1052      1049      1052      1055      1056
      1049      1052      1055      1057      1049      1052      1055      1058
      1050      1049      1052      1053      1050      1049      1052      1054
      1050      1049      1052      1055      1051      1049      1052      1053
      1051      1049      1052      1054      1051      1049      1052      1055
      1052      1055      1058      1059      1052      1055      1058      1060
      1052      1055      1058      1061      1053      1052      1055      1056
      1053      1052      1055      1057      1053      1052      1055      1058
      1054      1052      1055      1056      1054      1052      1055      1057
      1054      1052      1055      1058      1055      1058      1061      1062
      1055      1058      1061      1063      1055      1058      1061      1064
      1056      1055      1058      1059      1056      1055      1058      1060
      1056      1055      1058      1061      1057      1055      1058      1059
      1057      1055      1058      1060      1057      1055      1058      1061
      1058      1061      1064      1065      1058      1061      1064      1066
      1058      1061      1064      1067      1059      1058      1061      1062
      1059      1058      1061      1063      1059      1058      1061      1064
      1060      1058      1061      1062      1060      1058      1061      1063
      1060      1058      1061      1064      1062      1061      1064      1065
      1062      1061      1064      1066      1062      1061      1064      1067
      1063      1061      1064      1065      1063      1061      1064      1066
      1063      1061      1064      1067      1068      1072      1074      1075
      1068      1072      1074      1076      1068      1072      1077      1078
      1068      1072      1077      1079      1068      1072      1077      1083
      1069      1068      1072      1073      1069      1068      1072      1074
      1069      1068      1072      1077      1070      1068      1072      1073
      1070      1068      1072      1074      1070      1068      1072      1077
      1071      1068      1072      1073      1071      1068      1072      1074
      1071      1068      1072      1077      1072      1077      1083      1080
      1073      1072      1074      1075      1073      1072      1074      1076
      1073      1072      1077      1078      1073      1072      1077      1079
      1073      1072      1077      1083      1074      1072      1077      1078
      1074      1072      1077      1079      1074      1072      1077      1083
      1075      1074      1072      1077      1076      1074      1072      1077
      1077      1083      1080      1081      1077      1083      1080      1082
      1077      1083      1080      1084      1078      1077      1083      1080
      1079      1077      1083      1080      1080      1084      1085      1086
      1080      1084      1085      1087      1080      1084      1085      1088
      1081      1080      1084      1085      1082      1080      1084      1085
      1083      1080      1084      1085      1084      1085      1088      1089
      1084      1085      1088      1090      1084      1085      1088      1096
      1085      1088      1090      1091      1085      1088      1096      1097
      1085      1088      1096      1098      1085      1088      1096      1099
      1086      1085      1088      1089      1086      1085      1088      1090
      1086      1085      1088      1096      1087      1085      1088      1089
      1087      1085      1088      1090      1087      1085      1088      1096
      1088      1090      1091      1092      1088      1090      1091      1093
      1088      1096      1099      1100      1089      1088      1090      1091
      1089      1088      1096      1097      1089      1088      1096      1098
      1089      1088      1096      1099      1090      1088      1096      1097
      1090      1088      1096      1098      1090      1088      1096      1099
      1090      1091      1093      1094      1090      1091      1093      1095
      1090      1091      1093      1105      1091      1090      1088      1096
      1091      1093      1105      1106      1091      1093      1105      1107
      1091      1093      1105      1108      1092      1091      1093      1094
      1092      1091      1093      1095      1092      1091      1093      1105
      1093      1105      1108      1109      1093      1105      1108      1110
      1093      1105      1108      1111      1094      1093      1105      1106
      1094      1093      1105      1107      1094      1093      1105      1108
      1095      1093      1105      1106      1095      1093      1105      1107
      1095      1093      1105      1108      1096      1099      1100      1101
      1096      1099      1100      1102      1097      1096      1099      1100
      1098      1096      1099      1100      1099      1100      1102      1103
      1099      1100      1102      1104      1099      1100      1102      1152
      1100      1102      1152      1153      1100      1102      1152      1154
      1100      1102      1152      1155      1101      1100      1102      1103
      1101      1100      1102      1104      1101      1100      1102      1152
      1102      1152      1155      1156      1102      1152      1155      1157
      1102      1152      1155      1158      1103      1102      1152      1153
      1103      1102      1152      1154      1103      1102      1152      1155
      1104      1102      1152      1153      1104      1102      1152      1154
      1104      1102      1152      1155      1105      1108      1111      1112
      1105      1108      1111      1113      1105      1108      1111      1114
      1106      1105      1108      1109      1106      1105      1108      1110
      1106      1105      1108      1111      1107      1105      1108      1109
      1107      1105      1108      1110      1107      1105      1108      1111
      1108      1111      1114      1115      1108      1111      1114      1116
      1108      1111      1114      1117      1109      1108      1111      1112
      1109      1108      1111      1113      1109      1108      1111      1114
      1110      1108      1111      1112      1110      1108      1111      1113
      1110      1108      1111      1114      1111      1114      1117      1118
      1111      1114      1117      1119      1111      1114      1117      1120
      1112      1111      1114      1115      1112      1111      1114      1116
      1112      1111      1114      1117      1113      1111      1114      1115
      1113      1111      1114      1116      1113      1111      1114      1117
      1114      1117      1120      1121      1114      1117      1120      1122
      1114      1117      1120      1123      1115      1114      1117      1118
      1115      1114      1117      1119      1115      1114      1117      1120
      1116      1114      1117      1118      1116      1114      1117      1119
      1116      1114      1117      1120      1117      1120      1123      1124
      1117      1120      1123      1125      1118      1117      1120      1121
      1118      1117      1120      1122      1118      1117      1120      1123
      1119      1117      1120      1121      1119      1117      1120      1122
      1119      1117      1120      1123      1120      1123      1125      1126
      1120      1123      1125      1127      1121      1120      1123      1124
      1121      1120      1123      1125      1122      1120      1123      1124
      1122      1120      1123      1125      1123      1125      1127      1128
      1123      1125      1127      1129      1123      1125      1127      1130
      1124      1123      1125      1126      1124      1123      1125      1127
      1125      1127      1130      1131      1125      1127      1130      1132
      1125      1127      1130      1133      1126      1125      1127      1128
      1126      1125      1127      1129      1126      1125      1127      1130
      1127      1130      1133      1134      1127      1130      1133      1135
      1127      1130      1133      1136      1128      1127      1130      1131
      1128      1127      1130      1132      1128      1127      1130      1133
      1129      1127      1130      1131      1129      1127      1130      1132
      1129      1127      1130      1133      1130      1133      1136      1137
      1130      1133      1136      1138      1130      1133      1136      1139
      1131      1130      1133      1134      1131      1130      1133      1135
      1131      1130      1133      1136      1132      1130      1133      1134
      1132      1130      1133      1135      1132      1130      1133      1136
      1133      1136      1139      1140      1133      1136      1139      1141
      1133      1136      1139      1142      1134      1133      1136      1137
      1134      1133      1136      1138      1134      1133      1136      1139
      1135      1133      1136      1137      1135      1133      1136      1138
      1135      1133      1136      1139      1136      1139      1142      1143
      1136      1139      1142      1144      1136      1139      1142      1145
      1137      1136      1139      1140      1137      1136      1139      1141
      1137      1136      1139      1142      1138      1136      1139      1140
      1138      1136      1139      1141      1138      1136      1139      1142
      1139      1142      1145      1146      1139      1142      1145      1147
      1139      1142      1145      1148      1140      1139      1142      1143
      1140      1139      1142      1144      1140      1139      1142      1145
      1141      1139      1142      1143      1141      1139      1142      1144
      1141      1139      1142      1145      1142      1145      1148      1149
      1142      1145      1148      1150      1142      1145      1148      1151
      1143      1142      1145      1146      1143      1142      1145      1147
      1143      1142      1145      1148      1144      1142      1145      1146
      1144      1142      1145      1147      1144      1142      1145      1148
      1146      1145      1148      1149      1146      1145      1148      1150
      1146      1145      1148      1151      1147      1145      1148      1149
      1147      1145      1148      1150      1147      1145      1148      1151
      1152      1155      1158      1159      1152      1155      1158      1160
      1152      1155      1158      1161      1153      1152      1155      1156
      1153      1152      1155      1157      1153      1152      1155      1158
      1154      1152      1155      1156      1154      1152      1155      1157
      1154      1152      1155      1158      1155      1158      1161      1162
      1155      1158      1161      1163      1155      1158      1161      1164
      1156      1155      1158      1159      1156      1155      1158      1160
      1156      1155      1158      1161      1157      1155      1158      1159
      1157      1155      1158      1160      1157      1155      1158      1161
      1158      1161      1164      1165      1158      1161      1164      1166
      1158      1161      1164      1167      1159      1158      1161      1162
      1159      1158      1161      1163      1159      1158      1161      1164
      1160      1158      1161      1162      1160      1158      1161      1163
      1160      1158      1161      1164      1161      1164      1167      1168
      1161      1164      1167      1169      1161      1164      1167      1170
      1162      1161      1164      1165      1162      1161      1164      1166
      1162      1161      1164      1167      1163      1161      1164      1165
      1163      1161      1164      1166      1163      1161      1164      1167
      1164      1167      1170      1171      1164      1167      1170      1172
      1164      1167      1170      1173      1165      1164      1167      1168
      1165      1164      1167      1169      1165      1164      1167      1170
      1166      1164      1167      1168      1166      1164      1167      1169
      1166      1164      1167      1170      1167      1170      1173      1174
      1167      1170      1173      1175      1167      1170      1173      1176
      1168      1167      1170      1171      1168      1167      1170      1172
      1168      1167      1170      1173      1169      1167      1170      1171
      1169      1167      1170      1172      1169      1167      1170      1173
      1170      1173      1176      1177      1170      1173      1176      1178
      1170      1173      1176      1179      1171      1170      1173      1174
      1171      1170      1173      1175      1171      1170      1173      1176
      1172      1170      1173      1174      1172      1170      1173      1175
      1172      1170      1173      1176      1173      1176      1179      1180
      1173      1176      1179      1181      1173      1176      1179      1182
      1174      1173      1176      1177      1174      1173      1176      1178
      1174      1173      1176      1179      1175      1173      1176      1177
      1175      1173      1176      1178      1175      1173      1176      1179
      1176      1179      1182      1183      1176      1179      1182      1184
      1176      1179      1182      1185      1177      1176      1179      1180
      1177      1176      1179      1181      1177      1176      1179      1182
      1178      1176      1179      1180      1178      1176      1179      1181
      1178      1176      1179      1182      1179      1182      1185      1186
      1179      1182      1185      1187      1179      1182      1185      1188
      1180      1179      1182      1183      1180      1179      1182      1184
      1180      1179      1182      1185      1181      1179      1182      1183
      1181      1179      1182      1184      1181      1179      1182      1185
      1182      1185      1188      1189      1182      1185      1188      1190
      1182      1185      1188      1191      1183      1182      1185      1186
      1183      1182      1185      1187      1183      1182      1185      1188
      1184      1182      1185      1186      1184      1182      1185      1187
      1184      1182      1185      1188      1185      1188      1191      1192
      1185      1188      1191      1193      1185      1188      1191      1194
      1186      1185      1188      1189      1186      1185      1188      1190
      1186      1185      1188      1191      1187      1185      1188      1189
      1187      1185      1188      1190      1187      1185      1188      1191
      1189      1188      1191      1192      1189      1188      1191      1193
      1189      1188      1191      1194      1190      1188      1191      1192
      1190      1188      1191      1193      1190      1188      1191      1194
      1195      1196      1211      1212      1195      1196      1211      1213
      1195      1196      1211      1217      1196      1195      1199      1200
      1196      1195      1199      1201      1196      1195      1199      1202
      1196      1195      1203      1204      1196      1195      1203      1205
      1196      1195      1203      1206      1196      1195      1207      1208
      1196      1195      1207      1209      1196      1195      1207      1210
      1196      1211      1217      1214      1197      1196      1195      1199
      1197      1196      1195      1203      1197      1196      1195      1207
      1197      1196      1211      1212      1197      1196      1211      1213
      1197      1196      1211      1217      1198      1196      1195      1199
      1198      1196      1195      1203      1198      1196      1195      1207
      1198      1196      1211      1212      1198      1196      1211      1213
      1198      1196      1211      1217      1199      1195      1196      1211
      1199      1195      1203      1204      1199      1195      1203      1205
      1199      1195      1203      1206      1199      1195      1207      1208
      1199      1195      1207      1209      1199      1195      1207      1210
      1200      1199      1195      1203      1200      1199      1195      1207
      1201      1199      1195      1203      1201      1199      1195      1207
      1202      1199      1195      1203      1202      1199      1195      1207
      1203      1195      1196      1211      1203      1195      1207      1208
      1203      1195      1207      1209      1203      1195      1207      1210
      1204      1203      1195      1207      1205      1203      1195      1207
      1206      1203      1195      1207      1207      1195      1196      1211
      1211      1217      1214      1215      1211      1217      1214      1216
      1211      1217      1214      1218      1212      1211      1217      1214
      1213      1211      1217      1214      1214      1218      1219      1220
      1214      1218      1219      1221      1214      1218      1219      1222
      1215      1214      1218      1219      1216      1214      1218      1219
      1217      1214      1218      1219      1218      1219      1222      1223
      1218      1219      1222      1224      1218      1219      1222      1230
      1219      1222      1224      1225      1219      1222      1230      1231
      1219      1222      1230      1232      1219      1222      1230      1233
      1220      1219      1222      1223      1220      1219      1222      1224
      1220      1219      1222      1230      1221      1219      1222      1223
      1221      1219      1222      1224      1221      1219      1222      1230
      1222      1224      1225      1226      1222      1224      1225      1227
      1222      1230      1233      1234      1223      1222      1224      1225
      1223      1222      1230      1231      1223      1222      1230      1232
      1223      1222      1230      1233      1224      1222      1230      1231
      1224      1222      1230      1232      1224      1222      1230      1233
      1224      1225      1227      1228      1224      1225      1227      1229
      1224      1225      1227      1239      1225      1224      1222      1230
      1225      1227      1239      1240      1225      1227      1239      1241
      1225      1227      1239      1242      1226      1225      1227      1228
      1226      1225      1227      1229      1226      1225      1227      1239
      1227      1239      1242      1243      1227      1239      1242      1244
      1227      1239      1242      1245      1228      1227      1239      1240
      1228      1227      1239      1241      1228      1227      1239      1242
      1229      1227      1239      1240      1229      1227      1239      1241
      1229      1227      1239      1242      1230      1233      1234      1235
      1230      1233      1234      1236      1231      1230      1233      1234
      1232      1230      1233      1234      1233      1234      1236      1237
      1233      1234      1236      1238      1233      1234      1236      1286
      1234      1236      1286      1287      1234      1236      1286      1288
      1234      1236      1286      1289      1235      1234      1236      1237
      1235      1234      1236      1238      1235      1234      1236      1286
      1236      1286      1289      1290      1236      1286      1289      1291
      1236      1286      1289      1292      1237      1236      1286      1287
      1237      1236      1286      1288      1237      1236      1286      1289
      1238      1236      1286      1287      1238      1236      1286      1288
      1238      1236      1286      1289      1239      1242      1245      1246
      1239      1242      1245      1247      1239      1242      1245      1248
      1240      1239      1242      1243      1240      1239      1242      1244
      1240      1239      1242      1245      1241      1239      1242      1243
      1241      1239      1242      1244      1241      1239      1242      1245
      1242      1245      1248      1249      1242      1245      1248      1250
      1242      1245      1248      1251      1243      1242      1245      1246
      1243      1242      1245      1247      1243      1242      1245      1248
      1244      1242      1245      1246      1244      1242      1245      1247
      1244      1242      1245      1248      1245      1248      1251      1252
      1245      1248      1251      1253      1245      1248      1251      1254
      1246      1245      1248      1249      1246      1245      1248      1250
      1246      1245      1248      1251      1247      1245      1248      1249
      1247      1245      1248      1250      1247      1245      1248      1251
      1248      1251      1254      1255      1248      1251      1254      1256
      1248      1251      1254      1257      1249      1248      1251      1252
      1249      1248      1251      1253      1249      1248      1251      1254
      1250      1248      1251      1252      1250      1248      1251      1253
      1250      1248      1251      1254      1251      1254      1257      1258
      1251      1254      1257      1259      1252      1251      1254      1255
      1252      1251      1254      1256      1252      1251      1254      1257
      1253      1251      1254      1255      1253      1251      1254      1256
      1253      1251      1254      1257      1254      1257      1259      1260
      1254      1257      1259      1261      1255      1254      1257      1258
      1255      1254      1257      1259      1256      1254      1257      1258
      1256      1254      1257      1259      1257      1259      1261      1262
      1257      1259      1261      1263      1257      1259      1261      1264
      1258      1257      1259      1260      1258      1257      1259      1261
      1259      1261      1264      1265      1259      1261      1264      1266
      1259      1261      1264      1267      1260      1259      1261      1262
      1260      1259      1261      1263      1260      1259      1261      1264
      1261      1264      1267      1268      1261      1264      1267      1269
      1261      1264      1267      1270      1262      1261      1264      1265
      1262      1261      1264      1266      1262      1261      1264      1267
      1263      1261      1264      1265      1263      1261      1264      1266
      1263      1261      1264      1267      1264      1267      1270      1271
      1264      1267      1270      1272      1264      1267      1270      1273
      1265      1264      1267      1268      1265      1264      1267      1269
      1265      1264      1267      1270      1266      1264      1267      1268
      1266      1264      1267      1269      1266      1264      1267      1270
      1267      1270      1273      1274      1267      1270      1273      1275
      1267      1270      1273      1276      1268      1267      1270      1271
      1268      1267      1270      1272      1268      1267      1270      1273
      1269      1267      1270      1271      1269      1267      1270      1272
      1269      1267      1270      1273      1270      1273      1276      1277
      1270      1273      1276      1278      1270      1273      1276      1279
      1271      1270      1273      1274      1271      1270      1273      1275
      1271      1270      1273      1276      1272      1270      1273      1274
      1272      1270      1273      1275      1272      1270      1273      1276
      1273      1276      1279      1280      1273      1276      1279      1281
      1273      1276      1279      1282      1274      1273      1276      1277
      1274      1273      1276      1278      1274      1273      1276      1279
      1275      1273      1276      1277      1275      1273      1276      1278
      1275      1273      1276      1279      1276      1279      1282      1283
      1276      1279      1282      1284      1276      1279      1282      1285
      1277      1276      1279      1280      1277      1276      1279      1281
      1277      1276      1279      1282      1278      1276      1279      1280
      1278      1276      1279      1281      1278      1276      1279      1282
      1280      1279      1282      1283      1280      1279      1282      1284
      1280      1279      1282      1285      1281      1279      1282      1283
      1281      1279      1282      1284      1281      1279      1282      1285
      1286      1289      1292      1293      1286      1289      1292      1294
      1286      1289      1292      1295      1287      1286      1289      1290
      1287      1286      1289      1291      1287      1286      1289      1292
      1288      1286      1289      1290      1288      1286      1289      1291
      1288      1286      1289      1292      1289      1292      1295      1296
      1289      1292      1295      1297      1289      1292      1295      1298
      1290      1289      1292      1293      1290      1289      1292      1294
      1290      1289      1292      1295      1291      1289      1292      1293
      1291      1289      1292      1294      1291      1289      1292      1295
      1292      1295      1298      1299      1292      1295      1298      1300
      1292      1295      1298      1301      1293      1292      1295      1296
      1293      1292      1295      1297      1293      1292      1295      1298
      1294      1292      1295      1296      1294      1292      1295      1297
      1294      1292      1295      1298      1295      1298      1301      1302
      1295      1298      1301      1303      1295      1298      1301      1304
      1296      1295      1298      1299      1296      1295      1298      1300
      1296      1295      1298      1301      1297      1295      1298      1299
      1297      1295      1298      1300      1297      1295      1298      1301
      1298      1301      1304      1305      1298      1301      1304      1306
      1298      1301      1304      1307      1299      1298      1301      1302
      1299      1298      1301      1303      1299      1298      1301      1304
      1300      1298      1301      1302      1300      1298      1301      1303
      1300      1298      1301      1304      1301      1304      1307      1308
      1301      1304      1307      1309      1301      1304      1307      1310
      1302      1301      1304      1305      1302      1301      1304      1306
      1302      1301      1304      1307      1303      1301      1304      1305
      1303      1301      1304      1306      1303      1301      1304      1307
      1304      1307      1310      1311      1304      1307      1310      1312
      1304      1307      1310      1313      1305      1304      1307      1308
      1305      1304      1307      1309      1305      1304      1307      1310
      1306      1304      1307      1308      1306      1304      1307      1309
      1306      1304      1307      1310      1307      1310      1313      1314
      1307      1310      1313      1315      1307      1310      1313      1316
      1308      1307      1310      1311      1308      1307      1310      1312
      1308      1307      1310      1313      1309      1307      1310      1311
      1309      1307      1310      1312      1309      1307      1310      1313
      1310      1313      1316      1317      1310      1313      1316      1318
      1310      1313      1316      1319      1311      1310      1313      1314
      1311      1310      1313      1315      1311      1310      1313      1316
      1312      1310      1313      1314      1312      1310      1313      1315
      1312      1310      1313      1316      1313      1316      1319      1320
      1313      1316      1319      1321      1313      1316      1319      1322
      1314      1313      1316      1317      1314      1313      1316      1318
      1314      1313      1316      1319      1315      1313      1316      1317
      1315      1313      1316      1318      1315      1313      1316      1319
      1316      1319      1322      1323      1316      1319      1322      1324
      1316      1319      1322      1325      1317      1316      1319      1320
      1317      1316      1319      1321      1317      1316      1319      1322
      1318      1316      1319      1320      1318      1316      1319      1321
      1318      1316      1319      1322      1319      1322      1325      1326
      1319      1322      1325      1327      1319      1322      1325      1328
      1320      1319      1322      1323      1320      1319      1322      1324
      1320      1319      1322      1325      1321      1319      1322      1323
      1321      1319      1322      1324      1321      1319      1322      1325
      1323      1322      1325      1326      1323      1322      1325      1327
      1323      1322      1325      1328      1324      1322      1325      1326
      1324      1322      1325      1327      1324      1322      1325      1328
      1329      1330      1345      1346      1329      1330      1345      1347
      1329      1330      1345      1351      1330      1329      1333      1334
      1330      1329      1333      1335      1330      1329      1333      1336
      1330      1329      1337      1338      1330      1329      1337      1339
      1330      1329      1337      1340      1330      1329      1341      1342
      1330      1329      1341      1343      1330      1329      1341      1344
      1330      1345      1351      1348      1331      1330      1329      1333
      1331      1330      1329      1337      1331      1330      1329      1341
      1331      1330      1345      1346      1331      1330      1345      1347
      1331      1330      1345      1351      1332      1330      1329      1333
      1332      1330      1329      1337      1332      1330      1329      1341
      1332      1330      1345      1346      1332      1330      1345      1347
      1332      1330      1345      1351      1333      1329      1330      1345
      1333      1329      1337      1338      1333      1329      1337      1339
      1333      1329      1337      1340      1333      1329      1341      1342
      1333      1329      1341      1343      1333      1329      1341      1344
      1334      1333      1329      1337      1334      1333      1329      1341
      1335      1333      1329      1337      1335      1333      1329      1341
      1336      1333      1329      1337      1336      1333      1329      1341
      1337      1329      1330      1345      1337      1329      1341      1342
      1337      1329      1341      1343      1337      1329      1341      1344
      1338      1337      1329      1341      1339      1337      1329      1341
      1340      1337      1329      1341      1341      1329      1330      1345
      1345      1351      1348      1349      1345      1351      1348      1350
      1345      1351      1348      1352      1346      1345      1351      1348
      1347      1345      1351      1348      1348      1352      1353      1354
      1348      1352      1353      1355      1348      1352      1353      1356
      1349      1348      1352      1353      1350      1348      1352      1353
      1351      1348      1352      1353      1352      1353      1356      1357
      1352      1353      1356      1358      1352      1353      1356      1364
      1353      1356      1358      1359      1353      1356      1364      1365
      1353      1356      1364      1366      1353      1356      1364      1367
      1354      1353      1356      1357      1354      1353      1356      1358
      1354      1353      1356      1364      1355      1353      1356      1357
      1355      1353      1356      1358      1355      1353      1356      1364
      1356      1358      1359      1360      1356      1358      1359      1361
      1356      1364      1367      1368      1357      1356      1358      1359
      1357      1356      1364      1365      1357      1356      1364      1366
      1357      1356      1364      1367      1358      1356      1364      1365
      1358      1356      1364      1366      1358      1356      1364      1367
      1358      1359      1361      1362      1358      1359      1361      1363
      1358      1359      1361      1373      1359      1358      1356      1364
      1359      1361      1373      1374      1359      1361      1373      1375
      1359      1361      1373      1376      1360      1359      1361      1362
      1360      1359      1361      1363      1360      1359      1361      1373
      1361      1373      1376      1377      1361      1373      1376      1378
      1361      1373      1376      1379      1362      1361      1373      1374
      1362      1361      1373      1375      1362      1361      1373      1376
      1363      1361      1373      1374      1363      1361      1373      1375
      1363      1361      1373      1376      1364      1367      1368      1369
      1364      1367      1368      1370      1365      1364      1367      1368
      1366      1364      1367      1368      1367      1368      1370      1371
      1367      1368      1370      1372      1367      1368      1370      1420
      1368      1370      1420      1421      1368      1370      1420      1422
      1368      1370      1420      1423      1369      1368      1370      1371
      1369      1368      1370      1372      1369      1368      1370      1420
      1370      1420      1423      1424      1370      1420      1423      1425
      1370      1420      1423      1426      1371      1370      1420      1421
      1371      1370      1420      1422      1371      1370      1420      1423
      1372      1370      1420      1421      1372      1370      1420      1422
      1372      1370      1420      1423      1373      1376      1379      1380
      1373      1376      1379      1381      1373      1376      1379      1382
      1374      1373      1376      1377      1374      1373      1376      1378
      1374      1373      1376      1379      1375      1373      1376      1377
      1375      1373      1376      1378      1375      1373      1376      1379
      1376      1379      1382      1383      1376      1379      1382      1384
      1376      1379      1382      1385      1377      1376      1379      1380
      1377      1376      1379      1381      1377      1376      1379      1382
      1378      1376      1379      1380      1378      1376      1379      1381
      1378      1376      1379      1382      1379      1382      1385      1386
      1379      1382      1385      1387      1379      1382      1385      1388
      1380      1379      1382      1383      1380      1379      1382      1384
      1380      1379      1382      1385      1381      1379      1382      1383
      1381      1379      1382      1384      1381      1379      1382      1385
      1382      1385      1388      1389      1382      1385      1388      1390
      1382      1385      1388      1391      1383      1382      1385      1386
      1383      1382      1385      1387      1383      1382      1385      1388
      1384      1382      1385      1386      1384      1382      1385      1387
      1384      1382      1385      1388      1385      1388      1391      1392
      1385      1388      1391      1393      1386      1385      1388      1389
      1386      1385      1388      1390      1386      1385      1388      1391
      1387      1385      1388      1389      1387      1385      1388      1390
      1387      1385      1388      1391      1388      1391      1393      1394
      1388      1391      1393      1395      1389      1388      1391      1392
      1389      1388      1391      1393      1390      1388      1391      1392
      1390      1388      1391      1393      1391      1393      1395      1396
      1391      1393      1395      1397      1391      1393      1395      1398
      1392      1391      1393      1394      1392      1391      1393      1395
      1393      1395      1398      1399      1393      1395      1398      1400
      1393      1395      1398      1401      1394      1393      1395      1396
      1394      1393      1395      1397      1394      1393      1395      1398
      1395      1398      1401      1402      1395      1398      1401      1403
      1395      1398      1401      1404      1396      1395      1398      1399
      1396      1395      1398      1400      1396      1395      1398      1401
      1397      1395      1398      1399      1397      1395      1398      1400
      1397      1395      1398      1401      1398      1401      1404      1405
      1398      1401      1404      1406      1398      1401      1404      1407
      1399      1398      1401      1402      1399      1398      1401      1403
      1399      1398      1401      1404      1400      1398      1401      1402
      1400      1398      1401      1403      1400      1398      1401      1404
      1401      1404      1407      1408      1401      1404      1407      1409
      1401      1404      1407      1410      1402      1401      1404      1405
      1402      1401      1404      1406      1402      1401      1404      1407
      1403      1401      1404      1405      1403      1401      1404      1406
      1403      1401      1404      1407      1404      1407      1410      1411
      1404      1407      1410      1412      1404      1407      1410      1413
      1405      1404      1407      1408      1405      1404      1407      1409
      1405      1404      1407      1410      1406      1404      1407      1408
      1406      1404      1407      1409      1406      1404      1407      1410
      1407      1410      1413      1414      1407      1410      1413      1415
      1407      1410      1413      1416      1408      1407      1410      1411
      1408      1407      1410      1412      1408      1407      1410      1413
      1409      1407      1410      1411      1409      1407      1410      1412
      1409      1407      1410      1413      1410      1413      1416      1417
      1410      1413      1416      1418      1410      1413      1416      1419
      1411      1410      1413      1414      1411      1410      1413      1415
      1411      1410      1413      1416      1412      1410      1413      1414
      1412      1410      1413      1415      1412      1410      1413      1416
      1414      1413      1416      1417      1414      1413      1416      1418
      1414      1413      1416      1419      1415      1413      1416      1417
      1415      1413      1416      1418      1415      1413      1416      1419
      1420      1423      1426      1427      1420      1423      1426      1428
      1420      1423      1426      1429      1421      1420      1423      1424
      1421      1420      1423      1425      1421      1420      1423      1426
      1422      1420      1423      1424      1422      1420      1423      1425
      1422      1420      1423      1426      1423      1426      1429      1430
      1423      1426      1429      1431      1423      1426      1429      1432
      1424      1423      1426      1427      1424      1423      1426      1428
      1424      1423      1426      1429      1425      1423      1426      1427
      1425      1423      1426      1428      1425      1423      1426      1429
      1426      1429      1432      1433      1426      1429      1432      1434
      1426      1429      1432      1435      1427      1426      1429      1430
      1427      1426      1429      1431      1427      1426      1429      1432
      1428      1426      1429      1430      1428      1426      1429      1431
      1428      1426      1429      1432      1429      1432      1435      1436
      1429      1432      1435      1437      1429      1432      1435      1438
      1430      1429      1432      1433      1430      1429      1432      1434
      1430      1429      1432      1435      1431      1429      1432      1433
      1431      1429      1432      1434      1431      1429      1432      1435
      1432      1435      1438      1439      1432      1435      1438      1440
      1432      1435      1438      1441      1433      1432      1435      1436
      1433      1432      1435      1437      1433      1432      1435      1438
      1434      1432      1435      1436      1434      1432      1435      1437
      1434      1432      1435      1438      1435      1438      1441      1442
      1435      1438      1441      1443      1435      1438      1441      1444
      1436      1435      1438      1439      1436      1435      1438      1440
      1436      1435      1438      1441      1437      1435      1438      1439
      1437      1435      1438      1440      1437      1435      1438      1441
      1438      1441      1444      1445      1438      1441      1444      1446
      1438      1441      1444      1447      1439      1438      1441      1442
      1439      1438      1441      1443      1439      1438      1441      1444
      1440      1438      1441      1442      1440      1438      1441      1443
      1440      1438      1441      1444      1441      1444      1447      1448
      1441      1444      1447      1449      1441      1444      1447      1450
      1442      1441      1444      1445      1442      1441      1444      1446
      1442      1441      1444      1447      1443      1441      1444      1445
      1443      1441      1444      1446      1443      1441      1444      1447
      1444      1447      1450      1451      1444      1447      1450      1452
      1444      1447      1450      1453      1445      1444      1447      1448
      1445      1444      1447      1449      1445      1444      1447      1450
      1446      1444      1447      1448      1446      1444      1447      1449
      1446      1444      1447      1450      1447      1450      1453      1454
      1447      1450      1453      1455      1447      1450      1453      1456
      1448      1447      1450      1451      1448      1447      1450      1452
      1448      1447      1450      1453      1449      1447      1450      1451
      1449      1447      1450      1452      1449      1447      1450      1453
      1450      1453      1456      1457      1450      1453      1456      1458
      1450      1453      1456      1459      1451      1450      1453      1454
      1451      1450      1453      1455      1451      1450      1453      1456
      1452      1450      1453      1454      1452      1450      1453      1455
      1452      1450      1453      1456      1453      1456      1459      1460
      1453      1456      1459      1461      1453      1456      1459      1462
      1454      1453      1456      1457      1454      1453      1456      1458
      1454      1453      1456      1459      1455      1453      1456      1457
      1455      1453      1456      1458      1455      1453      1456      1459
      1457      1456      1459      1460      1457      1456      1459      1461
      1457      1456      1459      1462      1458      1456      1459      1460
      1458      1456      1459      1461      1458      1456      1459      1462
      1463      1464      1479      1480      1463      1464      1479      1481
      1463      1464      1479      1485      1464      1463      1467      1468
      1464      1463      1467      1469      1464      1463      1467      1470
      1464      1463      1471      1472      1464      1463      1471      1473
      1464      1463      1471      1474      1464      1463      1475      1476
      1464      1463      1475      1477      1464      1463      1475      1478
      1464      1479      1485      1482      1465      1464      1463      1467
      1465      1464      1463      1471      1465      1464      1463      1475
      1465      1464      1479      1480      1465      1464      1479      1481
      1465      1464      1479      1485      1466      1464      1463      1467
      1466      1464      1463      1471      1466      1464      1463      1475
      1466      1464      1479      1480      1466      1464      1479      1481
      1466      1464      1479      1485      1467      1463      1464      1479
      1467      1463      1471      1472      1467      1463      1471      1473
      1467      1463      1471      1474      1467      1463      1475      1476
      1467      1463      1475      1477      1467      1463      1475      1478
      1468      1467      1463      1471      1468      1467      1463      1475
      1469      1467      1463      1471      1469      1467      1463      1475
      1470      1467      1463      1471      1470      1467      1463      1475
      1471      1463      1464      1479      1471      1463      1475      1476
      1471      1463      1475      1477      1471      1463      1475      1478
      1472      1471      1463      1475      1473      1471      1463      1475
      1474      1471      1463      1475      1475      1463      1464      1479
      1479      1485      1482      1483      1479      1485      1482      1484
      1479      1485      1482      1486      1480      1479      1485      1482
      1481      1479      1485      1482      1482      1486      1487      1488
      1482      1486      1487      1489      1482      1486      1487      1490
      1483      1482      1486      1487      1484      1482      1486      1487
      1485      1482      1486      1487      1486      1487      1490      1491
      1486      1487      1490      1492      1486      1487      1490      1498
      1487      1490      1492      1493      1487      1490      1498      1499
      1487      1490      1498      1500      1487      1490      1498      1501
      1488      1487      1490      1491      1488      1487      1490      1492
      1488      1487      1490      1498      1489      1487      1490      1491
      1489      1487      1490      1492      1489      1487      1490      1498
      1490      1492      1493      1494      1490      1492      1493      1495
      1490      1498      1501      1502      1491      1490      1492      1493
      1491      1490      1498      1499      1491      1490      1498      1500
      1491      1490      1498      1501      1492      1490      1498      1499
      1492      1490      1498      1500      1492      1490      1498      1501
      1492      1493      1495      1496      1492      1493      1495      1497
      1492      1493      1495      1507      1493      1492      1490      1498
      1493      1495      1507      1508      1493      1495      1507      1509
      1493      1495      1507      1510      1494      1493      1495      1496
      1494      1493      1495      1497      1494      1493      1495      1507
      1495      1507      1510      1511      1495      1507      1510      1512
      1495      1507      1510      1513      1496      1495      1507      1508
      1496      1495      1507      1509      1496      1495      1507      1510
      1497      1495      1507      1508      1497      1495      1507      1509
      1497      1495      1507      1510      1498      1501      1502      1503
      1498      1501      1502      1504      1499      1498      1501      1502
      1500      1498      1501      1502      1501      1502      1504      1505
      1501      1502      1504      1506      1501      1502      1504      1554
      1502      1504      1554      1555      1502      1504      1554      1556
      1502      1504      1554      1557      1503      1502      1504      1505
      1503      1502      1504      1506      1503      1502      1504      1554
      1504      1554      1557      1558      1504      1554      1557      1559
      1504      1554      1557      1560      1505      1504      1554      1555
      1505      1504      1554      1556      1505      1504      1554      1557
      1506      1504      1554      1555      1506      1504      1554      1556
      1506      1504      1554      1557      1507      1510      1513      1514
      1507      1510      1513      1515      1507      1510      1513      1516
      1508      1507      1510      1511      1508      1507      1510      1512
      1508      1507      1510      1513      1509      1507      1510      1511
      1509      1507      1510      1512      1509      1507      1510      1513
      1510      1513      1516      1517      1510      1513      1516      1518
      1510      1513      1516      1519      1511      1510      1513      1514
      1511      1510      1513      1515      1511      1510      1513      1516
      1512      1510      1513      1514      1512      1510      1513      1515
      1512      1510      1513      1516      1513      1516      1519      1520
      1513      1516      1519      1521      1513      1516      1519      1522
      1514      1513      1516      1517      1514      1513      1516      1518
      1514      1513      1516      1519      1515      1513      1516      1517
      1515      1513      1516      1518      1515      1513      1516      1519
      1516      1519      1522      1523      1516      1519      1522      1524
      1516      1519      1522      1525      1517      1516      1519      1520
      1517      1516      1519      1521      1517      1516      1519      1522
      1518      1516      1519      1520      1518      1516      1519      1521
      1518      1516      1519      1522      1519      1522      1525      1526
      1519      1522      1525      1527      1520      1519      1522      1523
      1520      1519      1522      1524      1520      1519      1522      1525
      1521      1519      1522      1523      1521      1519      1522      1524
      1521      1519      1522      1525      1522      1525      1527      1528
      1522      1525      1527      1529      1523      1522      1525      1526
      1523      1522      1525      1527      1524      1522      1525      1526
      1524      1522      1525      1527      1525      1527      1529      1530
      1525      1527      1529      1531      1525      1527      1529      1532
      1526      1525      1527      1528      1526      1525      1527      1529
      1527      1529      1532      1533      1527      1529      1532      1534
      1527      1529      1532      1535      1528      1527      1529      1530
      1528      1527      1529      1531      1528      1527      1529      1532
      1529      1532      1535      1536      1529      1532      1535      1537
      1529      1532      1535      1538      1530      1529      1532      1533
      1530      1529      1532      1534      1530      1529      1532      1535
      1531      1529      1532      1533      1531      1529      1532      1534
      1531      1529      1532      1535      1532      1535      1538      1539
      1532      1535      1538      1540      1532      1535      1538      1541
      1533      1532      1535      1536      1533      1532      1535      1537
      1533      1532      1535      1538      1534      1532      1535      1536
      1534      1532      1535      1537      1534      1532      1535      1538
      1535      1538      1541      1542      1535      1538      1541      1543
      1535      1538      1541      1544      1536      1535      1538      1539
      1536      1535      1538      1540      1536      1535      1538      1541
      1537      1535      1538      1539      1537      1535      1538      1540
      1537      1535      1538      1541      1538      1541      1544      1545
      1538      1541      1544      1546      1538      1541      1544      1547
      1539      1538      1541      1542      1539      1538      1541      1543
      1539      1538      1541      1544      1540      1538      1541      1542
      1540      1538      1541      1543      1540      1538      1541      1544
      1541      1544      1547      1548      1541      1544      1547      1549
      1541      1544      1547      1550      1542      1541      1544      1545
      1542      1541      1544      1546      1542      1541      1544      1547
      1543      1541      1544      1545      1543      1541      1544      1546
      1543      1541      1544      1547      1544      1547      1550      1551
      1544      1547      1550      1552      1544      1547      1550      1553
      1545      1544      1547      1548      1545      1544      1547      1549
      1545      1544      1547      1550      1546      1544      1547      1548
      1546      1544      1547      1549      1546      1544      1547      1550
      1548      1547      1550      1551      1548      1547      1550      1552
      1548      1547      1550      1553      1549      1547      1550      1551
      1549      1547      1550      1552      1549      1547      1550      1553
      1554      1557      1560      1561      1554      1557      1560      1562
      1554      1557      1560      1563      1555      1554      1557      1558
      1555      1554      1557      1559      1555      1554      1557      1560
      1556      1554      1557      1558      1556      1554      1557      1559
      1556      1554      1557      1560      1557      1560      1563      1564
      1557      1560      1563      1565      1557      1560      1563      1566
      1558      1557      1560      1561      1558      1557      1560      1562
      1558      1557      1560      1563      1559      1557      1560      1561
      1559      1557      1560      1562      1559      1557      1560      1563
      1560      1563      1566      1567      1560      1563      1566      1568
      1560      1563      1566      1569      1561      1560      1563      1564
      1561      1560      1563      1565      1561      1560      1563      1566
      1562      1560      1563      1564      1562      1560      1563      1565
      1562      1560      1563      1566      1563      1566      1569      1570
      1563      1566      1569      1571      1563      1566      1569      1572
      1564      1563      1566      1567      1564      1563      1566      1568
      1564      1563      1566      1569      1565      1563      1566      1567
      1565      1563      1566      1568      1565      1563      1566      1569
      1566      1569      1572      1573      1566      1569      1572      1574
      1566      1569      1572      1575      1567      1566      1569      1570
      1567      1566      1569      1571      1567      1566      1569      1572
      1568      1566      1569      1570      1568      1566      1569      1571
      1568      1566      1569      1572      1569      1572      1575      1576
      1569      1572      1575      1577      1569      1572      1575      1578
      1570      1569      1572      1573      1570      1569      1572      1574
      1570      1569      1572      1575      1571      1569      1572      1573
      1571      1569      1572      1574      1571      1569      1572      1575
      1572      1575      1578      1579      1572      1575      1578      1580
      1572      1575      1578      1581      1573      1572      1575      1576
      1573      1572      1575      1577      1573      1572      1575      1578
      1574      1572      1575      1576      1574      1572      1575      1577
      1574      1572      1575      1578      1575      1578      1581      1582
      1575      1578      1581      1583      1575      1578      1581      1584
      1576      1575      1578      1579      1576      1575      1578      1580
      1576      1575      1578      1581      1577      1575      1578      1579
      1577      1575      1578      1580      1577      1575      1578      1581
      1578      1581      1584      1585      1578      1581      1584      1586
      1578      1581      1584      1587      1579      1578      1581      1582
      1579      1578      1581      1583      1579      1578      1581      1584
      1580      1578      1581      1582      1580      1578      1581      1583
      1580      1578      1581      1584      1581      1584      1587      1588
      1581      1584      1587      1589      1581      1584      1587      1590
      1582      1581      1584      1585      1582      1581      1584      1586
      1582      1581      1584      1587      1583      1581      1584      1585
      1583      1581      1584      1586      1583      1581      1584      1587
      1584      1587      1590      1591      1584      1587      1590      1592
      1584      1587      1590      1593      1585      1584      1587      1588
      1585      1584      1587      1589      1585      1584      1587      1590
      1586      1584      1587      1588      1586      1584      1587      1589
      1586      1584      1587      1590      1587      1590      1593      1594
      1587      1590      1593      1595      1587      1590      1593      1596
      1588      1587      1590      1591      1588      1587      1590      1592
      1588      1587      1590      1593      1589      1587      1590      1591
      1589      1587      1590      1592      1589      1587      1590      1593
      1591      1590      1593      1594      1591      1590      1593      1595
      1591      1590      1593      1596      1592      1590      1593      1594
      1592      1590      1593      1595      1592      1590      1593      1596
      1597      1598      1613      1614      1597      1598      1613      1615
      1597      1598      1613      1619      1598      1597      1601      1602
      1598      1597      1601      1603      1598      1597      1601      1604
      1598      1597      1605      1606      1598      1597      1605      1607
      1598      1597      1605      1608      1598      1597      1609      1610
      1598      1597      1609      1611      1598      1597      1609      1612
      1598      1613      1619      1616      1599      1598      1597      1601
      1599      1598      1597      1605      1599      1598      1597      1609
      1599      1598      1613      1614      1599      1598      1613      1615
      1599      1598      1613      1619      1600      1598      1597      1601
      1600      1598      1597      1605      1600      1598      1597      1609
      1600      1598      1613      1614      1600      1598      1613      1615
      1600      1598      1613      1619      1601      1597      1598      1613
      1601      1597      1605      1606      1601      1597      1605      1607
      1601      1597      1605      1608      1601      1597      1609      1610
      1601      1597      1609      1611      1601      1597      1609      1612
      1602      1601      1597      1605      1602      1601      1597      1609
      1603      1601      1597      1605      1603      1601      1597      1609
      1604      1601      1597      1605      1604      1601      1597      1609
      1605      1597      1598      1613      1605      1597      1609      1610
      1605      1597      1609      1611      1605      1597      1609      1612
      1606      1605      1597      1609      1607      1605      1597      1609
      1608      1605      1597      1609      1609      1597      1598      1613
      1613      1619      1616      1617      1613      1619      1616      1618
      1613      1619      1616      1620      1614      1613      1619      1616
      1615      1613      1619      1616      1616      1620      1621      1622
      1616      1620      1621      1623      1616      1620      1621      1624
      1617      1616      1620      1621      1618      1616      1620      1621
      1619      1616      1620      1621      1620      1621      1624      1625
      1620      1621      1624      1626      1620      1621      1624      1632
      1621      1624      1626      1627      1621      1624      1632      1633
      1621      1624      1632      1634      1621      1624      1632      1635
      1622      1621      1624      1625      1622      1621      1624      1626
      1622      1621      1624      1632      1623      1621      1624      1625
      1623      1621      1624      1626      1623      1621      1624      1632
      1624      1626      1627      1628      1624      1626      1627      1629
      1624      1632      1635      1636      1625      1624      1626      1627
      1625      1624      1632      1633      1625      1624      1632      1634
      1625      1624      1632      1635      1626      1624      1632      1633
      1626      1624      1632      1634      1626      1624      1632      1635
      1626      1627      1629      1630      1626      1627      1629      1631
      1626      1627      1629      1641      1627      1626      1624      1632
      1627      1629      1641      1642      1627      1629      1641      1643
      1627      1629      1641      1644      1628      1627      1629      1630
      1628      1627      1629      1631      1628      1627      1629      1641
      1629      1641      1644      1645      1629      1641      1644      1646
      1629      1641      1644      1647      1630      1629      1641      1642
      1630      1629      1641      1643      1630      1629      1641      1644
      1631      1629      1641      1642      1631      1629      1641      1643
      1631      1629      1641      1644      1632      1635      1636      1637
      1632      1635      1636      1638      1633      1632      1635      1636
      1634      1632      1635      1636      1635      1636      1638      1639
      1635      1636      1638      1640      1635      1636      1638      1688
      1636      1638      1688      1689      1636      1638      1688      1690
      1636      1638      1688      1691      1637      1636      1638      1639
      1637      1636      1638      1640      1637      1636      1638      1688
      1638      1688      1691      1692      1638      1688      1691      1693
      1638      1688      1691      1694      1639      1638      1688      1689
      1639      1638      1688      1690      1639      1638      1688      1691
      1640      1638      1688      1689      1640      1638      1688      1690
      1640      1638      1688      1691      1641      1644      1647      1648
      1641      1644      1647      1649      1641      1644      1647      1650
      1642      1641      1644      1645      1642      1641      1644      1646
      1642      1641      1644      1647      1643      1641      1644      1645
      1643      1641      1644      1646      1643      1641      1644      1647
      1644      1647      1650      1651      1644      1647      1650      1652
      1644      1647      1650      1653      1645      1644      1647      1648
      1645      1644      1647      1649      1645      1644      1647      1650
      1646      1644      1647      1648      1646      1644      1647      1649
      1646      1644      1647      1650      1647      1650      1653      1654
      1647      1650      1653      1655      1647      1650      1653      1656
      1648      1647      1650      1651      1648      1647      1650      1652
      1648      1647      1650      1653      1649      1647      1650      1651
      1649      1647      1650      1652      1649      1647      1650      1653
      1650      1653      1656      1657      1650      1653      1656      1658
      1650      1653      1656      1659      1651      1650      1653      1654
      1651      1650      1653      1655      1651      1650      1653      1656
      1652      1650      1653      1654      1652      1650      1653      1655
      1652      1650      1653      1656      1653      1656      1659      1660
      1653      1656      1659      1661      1654      1653      1656      1657
      1654      1653      1656      1658      1654      1653      1656      1659
      1655      1653      1656      1657      1655      1653      1656      1658
      1655      1653      1656      1659      1656      1659      1661      1662
      1656      1659      1661      1663      1657      1656      1659      1660
      1657      1656      1659      1661      1658      1656      1659      1660
      1658      1656      1659      1661      1659      1661      1663      1664
      1659      1661      1663      1665      1659      1661      1663      1666
      1660      1659      1661      1662      1660      1659      1661      1663
      1661      1663      1666      1667      1661      1663      1666      1668
      1661      1663      1666      1669      1662      1661      1663      1664
      1662      1661      1663      1665      1662      1661      1663      1666
      1663      1666      1669      1670      1663      1666      1669      1671
      1663      1666      1669      1672      1664      1663      1666      1667
      1664      1663      1666      1668      1664      1663      1666      1669
      1665      1663      1666      1667      1665      1663      1666      1668
      1665      1663      1666      1669      1666      1669      1672      1673
      1666      1669      1672      1674      1666      1669      1672      1675
      1667      1666      1669      1670      1667      1666      1669      1671
      1667      1666      1669      1672      1668      1666      1669      1670
      1668      1666      1669      1671      1668      1666      1669      1672
      1669      1672      1675      1676      1669      1672      1675      1677
      1669      1672      1675      1678      1670      1669      1672      1673
      1670      1669      1672      1674      1670      1669      1672      1675
      1671      1669      1672      1673      1671      1669      1672      1674
      1671      1669      1672      1675      1672      1675      1678      1679
      1672      1675      1678      1680      1672      1675      1678      1681
      1673      1672      1675      1676      1673      1672      1675      1677
      1673      1672      1675      1678      1674      1672      1675      1676
      1674      1672      1675      1677      1674      1672      1675      1678
      1675      1678      1681      1682      1675      1678      1681      1683
      1675      1678      1681      1684      1676      1675      1678      1679
      1676      1675      1678      1680      1676      1675      1678      1681
      1677      1675      1678      1679      1677      1675      1678      1680
      1677      1675      1678      1681      1678      1681      1684      1685
      1678      1681      1684      1686      1678      1681      1684      1687
      1679      1678      1681      1682      1679      1678      1681      1683
      1679      1678      1681      1684      1680      1678      1681      1682
      1680      1678      1681      1683      1680      1678      1681      1684
      1682      1681      1684      1685      1682      1681      1684      1686
      1682      1681      1684      1687      1683      1681      1684      1685
      1683      1681      1684      1686      1683      1681      1684      1687
      1688      1691      1694      1695      1688      1691      1694      1696
      1688      1691      1694      1697      1689      1688      1691      1692
      1689      1688      1691      1693      1689      1688      1691      1694
      1690      1688      1691      1692      1690      1688      1691      1693
      1690      1688      1691      1694      1691      1694      1697      1698
      1691      1694      1697      1699      1691      1694      1697      1700
      1692      1691      1694      1695      1692      1691      1694      1696
      1692      1691      1694      1697      1693      1691      1694      1695
      1693      1691      1694      1696      1693      1691      1694      1697
      1694      1697      1700      1701      1694      1697      1700      1702
      1694      1697      1700      1703      1695      1694      1697      1698
      1695      1694      1697      1699      1695      1694      1697      1700
      1696      1694      1697      1698      1696      1694      1697      1699
      1696      1694      1697      1700      1697      1700      1703      1704
      1697      1700      1703      1705      1697      1700      1703      1706
      1698      1697      1700      1701      1698      1697      1700      1702
      1698      1697      1700      1703      1699      1697      1700      1701
      1699      1697      1700      1702      1699      1697      1700      1703
      1700      1703      1706      1707      1700      1703      1706      1708
      1700      1703      1706      1709      1701      1700      1703      1704
      1701      1700      1703      1705      1701      1700      1703      1706
      1702      1700      1703      1704      1702      1700      1703      1705
      1702      1700      1703      1706      1703      1706      1709      1710
      1703      1706      1709      1711      1703      1706      1709      1712
      1704      1703      1706      1707      1704      1703      1706      1708
      1704      1703      1706      1709      1705      1703      1706      1707
      1705      1703      1706      1708      1705      1703      1706      1709
      1706      1709      1712      1713      1706      1709      1712      1714
      1706      1709      1712      1715      1707      1706      1709      1710
      1707      1706      1709      1711      1707      1706      1709      1712
      1708      1706      1709      1710      1708      1706      1709      1711
      1708      1706      1709      1712      1709      1712      1715      1716
      1709      1712      1715      1717      1709      1712      1715      1718
      1710      1709      1712      1713      1710      1709      1712      1714
      1710      1709      1712      1715      1711      1709      1712      1713
      1711      1709      1712      1714      1711      1709      1712      1715
      1712      1715      1718      1719      1712      1715      1718      1720
      1712      1715      1718      1721      1713      1712      1715      1716
      1713      1712      1715      1717      1713      1712      1715      1718
      1714      1712      1715      1716      1714      1712      1715      1717
      1714      1712      1715      1718      1715      1718      1721      1722
      1715      1718      1721      1723      1715      1718      1721      1724
      1716      1715      1718      1719      1716      1715      1718      1720
      1716      1715      1718      1721      1717      1715      1718      1719
      1717      1715      1718      1720      1717      1715      1718      1721
      1718      1721      1724      1725      1718      1721      1724      1726
      1718      1721      1724      1727      1719      1718      1721      1722
      1719      1718      1721      1723      1719      1718      1721      1724
      1720      1718      1721      1722      1720      1718      1721      1723
      1720      1718      1721      1724      1721      1724      1727      1728
      1721      1724      1727      1729      1721      1724      1727      1730
      1722      1721      1724      1725      1722      1721      1724      1726
      1722      1721      1724      1727      1723      1721      1724      1725
      1723      1721      1724      1726      1723      1721      1724      1727
      1725      1724      1727      1728      1725      1724      1727      1729
      1725      1724      1727      1730      1726      1724      1727      1728
      1726      1724      1727      1729      1726      1724      1727      1730
      1731      1732      1747      1748      1731      1732      1747      1749
      1731      1732      1747      1753      1732      1731      1735      1736
      1732      1731      1735      1737      1732      1731      1735      1738
      1732      1731      1739      1740      1732      1731      1739      1741
      1732      1731      1739      1742      1732      1731      1743      1744
      1732      1731      1743      1745      1732      1731      1743      1746
      1732      1747      1753      1750      1733      1732      1731      1735
      1733      1732      1731      1739      1733      1732      1731      1743
      1733      1732      1747      1748      1733      1732      1747      1749
      1733      1732      1747      1753      1734      1732      1731      1735
      1734      1732      1731      1739      1734      1732      1731      1743
      1734      1732      1747      1748      1734      1732      1747      1749
      1734      1732      1747      1753      1735      1731      1732      1747
      1735      1731      1739      1740      1735      1731      1739      1741
      1735      1731      1739      1742      1735      1731      1743      1744
      1735      1731      1743      1745      1735      1731      1743      1746
      1736      1735      1731      1739      1736      1735      1731      1743
      1737      1735      1731      1739      1737      1735      1731      1743
      1738      1735      1731      1739      1738      1735      1731      1743
      1739      1731      1732      1747      1739      1731      1743      1744
      1739      1731      1743      1745      1739      1731      1743      1746
      1740      1739      1731      1743      1741      1739      1731      1743
      1742      1739      1731      1743      1743      1731      1732      1747
      1747      1753      1750      1751      1747      1753      1750      1752
      1747      1753      1750      1754      1748      1747      1753      1750
      1749      1747      1753      1750      1750      1754      1755      1756
      1750      1754      1755      1757      1750      1754      1755      1758
      1751      1750      1754      1755      1752      1750      1754      1755
      1753      1750      1754      1755      1754      1755      1758      1759
      1754      1755      1758      1760      1754      1755      1758      1766
      1755      1758      1760      1761      1755      1758      1766      1767
      1755      1758      1766      1768      1755      1758      1766      1769
      1756      1755      1758      1759      1756      1755      1758      1760
      1756      1755      1758      1766      1757      1755      1758      1759
      1757      1755      1758      1760      1757      1755      1758      1766
      1758      1760      1761      1762      1758      1760      1761      1763
      1758      1766      1769      1770      1759      1758      1760      1761
      1759      1758      1766      1767      1759      1758      1766      1768
      1759      1758      1766      1769      1760      1758      1766      1767
      1760      1758      1766      1768      1760      1758      1766      1769
      1760      1761      1763      1764      1760      1761      1763      1765
      1760      1761      1763      1775      1761      1760      1758      1766
      1761      1763      1775      1776      1761      1763      1775      1777
      1761      1763      1775      1778      1762      1761      1763      1764
      1762      1761      1763      1765      1762      1761      1763      1775
      1763      1775      1778      1779      1763      1775      1778      1780
      1763      1775      1778      1781      1764      1763      1775      1776
      1764      1763      1775      1777      1764      1763      1775      1778
      1765      1763      1775      1776      1765      1763      1775      1777
      1765      1763      1775      1778      1766      1769      1770      1771
      1766      1769      1770      1772      1767      1766      1769      1770
      1768      1766      1769      1770      1769      1770      1772      1773
      1769      1770      1772      1774      1769      1770      1772      1822
      1770      1772      1822      1823      1770      1772      1822      1824
      1770      1772      1822      1825      1771      1770      1772      1773
      1771      1770      1772      1774      1771      1770      1772      1822
      1772      1822      1825      1826      1772      1822      1825      1827
      1772      1822      1825      1828      1773      1772      1822      1823
      1773      1772      1822      1824      1773      1772      1822      1825
      1774      1772      1822      1823      1774      1772      1822      1824
      1774      1772      1822      1825      1775      1778      1781      1782
      1775      1778      1781      1783      1775      1778      1781      1784
      1776      1775      1778      1779      1776      1775      1778      1780
      1776      1775      1778      1781      1777      1775      1778      1779
      1777      1775      1778      1780      1777      1775      1778      1781
      1778      1781      1784      1785      1778      1781      1784      1786
      1778      1781      1784      1787      1779      1778      1781      1782
      1779      1778      1781      1783      1779      1778      1781      1784
      1780      1778      1781      1782      1780      1778      1781      1783
      1780      1778      1781      1784      1781      1784      1787      1788
      1781      1784      1787      1789      1781      1784      1787      1790
      1782      1781      1784      1785      1782      1781      1784      1786
      1782      1781      1784      1787      1783      1781      1784      1785
      1783      1781      1784      1786      1783      1781      1784      1787
      1784      1787      1790      1791      1784      1787      1790      1792
      1784      1787      1790      1793      1785      1784      1787      1788
      1785      1784      1787      1789      1785      1784      1787      1790
      1786      1784      1787      1788      1786      1784      1787      1789
      1786      1784      1787      1790      1787      1790      1793      1794
      1787      1790      1793      1795      1788      1787      1790      1791
      1788      1787      1790      1792      1788      1787      1790      1793
      1789      1787      1790      1791      1789      1787      1790      1792
      1789      1787      1790      1793      1790      1793      1795      1796
      1790      1793      1795      1797      1791      1790      1793      1794
      1791      1790      1793      1795      1792      1790      1793      1794
      1792      1790      1793      1795      1793      1795      1797      1798
      1793      1795      1797      1799      1793      1795      1797      1800
      1794      1793      1795      1796      1794      1793      1795      1797
      1795      1797      1800      1801      1795      1797      1800      1802
      1795      1797      1800      1803      1796      1795      1797      1798
      1796      1795      1797      1799      1796      1795      1797      1800
      1797      1800      1803      1804      1797      1800      1803      1805
      1797      1800      1803      1806      1798      1797      1800      1801
      1798      1797      1800      1802      1798      1797      1800      1803
      1799      1797      1800      1801      1799      1797      1800      1802
      1799      1797      1800      1803      1800      1803      1806      1807
      1800      1803      1806      1808      1800      1803      1806      1809
      1801      1800      1803      1804      1801      1800      1803      1805
      1801      1800      1803      1806      1802      1800      1803      1804
      1802      1800      1803      1805      1802      1800      1803      1806
      1803      1806      1809      1810      1803      1806      1809      1811
      1803      1806      1809      1812      1804      1803      1806      1807
      1804      1803      1806      1808      1804      1803      1806      1809
      1805      1803      1806      1807      1805      1803      1806      1808
      1805      1803      1806      1809      1806      1809      1812      1813
      1806      1809      1812      1814      1806      1809      1812      1815
      1807      1806      1809      1810      1807      1806      1809      1811
      1807      1806      1809      1812      1808      1806      1809      1810
      1808      1806      1809      1811      1808      1806      1809      1812
      1809      1812      1815      1816      1809      1812      1815      1817
      1809      1812      1815      1818      1810      1809      1812      1813
      1810      1809      1812      1814      1810      1809      1812      1815
      1811      1809      1812      1813      1811      1809      1812      1814
      1811      1809      1812      1815      1812      1815      1818      1819
      1812      1815      1818      1820      1812      1815      1818      1821
      1813      1812      1815      1816      1813      1812      1815      1817
      1813      1812      1815      1818      1814      1812      1815      1816
      1814      1812      1815      1817      1814      1812      1815      1818
      1816      1815      1818      1819      1816      1815      1818      1820
      1816      1815      1818      1821      1817      1815      1818      1819
      1817      1815      1818      1820      1817      1815      1818      1821
      1822      1825      1828      1829      1822      1825      1828      1830
      1822      1825      1828      1831      1823      1822      1825      1826
      1823      1822      1825      1827      1823      1822      1825      1828
      1824      1822      1825      1826      1824      1822      1825      1827
      1824      1822      1825      1828      1825      1828      1831      1832
      1825      1828      1831      1833      1825      1828      1831      1834
      1826      1825      1828      1829      1826      1825      1828      1830
      1826      1825      1828      1831      1827      1825      1828      1829
      1827      1825      1828      1830      1827      1825      1828      1831
      1828      1831      1834      1835      1828      1831      1834      1836
      1828      1831      1834      1837      1829      1828      1831      1832
      1829      1828      1831      1833      1829      1828      1831      1834
      1830      1828      1831      1832      1830      1828      1831      1833
      1830      1828      1831      1834      1831      1834      1837      1838
      1831      1834      1837      1839      1831      1834      1837      1840
      1832      1831      1834      1835      1832      1831      1834      1836
      1832      1831      1834      1837      1833      1831      1834      1835
      1833      1831      1834      1836      1833      1831      1834      1837
      1834      1837      1840      1841      1834      1837      1840      1842
      1834      1837      1840      1843      1835      1834      1837      1838
      1835      1834      1837      1839      1835      1834      1837      1840
      1836      1834      1837      1838      1836      1834      1837      1839
      1836      1834      1837      1840      1837      1840      1843      1844
      1837      1840      1843      1845      1837      1840      1843      1846
      1838      1837      1840      1841      1838      1837      1840      1842
      1838      1837      1840      1843      1839      1837      1840      1841
      1839      1837      1840      1842      1839      1837      1840      1843
      1840      1843      1846      1847      1840      1843      1846      1848
      1840      1843      1846      1849      1841      1840      1843      1844
      1841      1840      1843      1845      1841      1840      1843      1846
      1842      1840      1843      1844      1842      1840      1843      1845
      1842      1840      1843      1846      1843      1846      1849      1850
      1843      1846      1849      1851      1843      1846      1849      1852
      1844      1843      1846      1847      1844      1843      1846      1848
      1844      1843      1846      1849      1845      1843      1846      1847
      1845      1843      1846      1848      1845      1843      1846      1849
      1846      1849      1852      1853      1846      1849      1852      1854
      1846      1849      1852      1855      1847      1846      1849      1850
      1847      1846      1849      1851      1847      1846      1849      1852
      1848      1846      1849      1850      1848      1846      1849      1851
      1848      1846      1849      1852      1849      1852      1855      1856
      1849      1852      1855      1857      1849      1852      1855      1858
      1850      1849      1852      1853      1850      1849      1852      1854
      1850      1849      1852      1855      1851      1849      1852      1853
      1851      1849      1852      1854      1851      1849      1852      1855
      1852      1855      1858      1859      1852      1855      1858      1860
      1852      1855      1858      1861      1853      1852      1855      1856
      1853      1852      1855      1857      1853      1852      1855      1858
      1854      1852      1855      1856      1854      1852      1855      1857
      1854      1852      1855      1858      1855      1858      1861      1862
      1855      1858      1861      1863      1855      1858      1861      1864
      1856      1855      1858      1859      1856      1855      1858      1860
      1856      1855      1858      1861      1857      1855      1858      1859
      1857      1855      1858      1860      1857      1855      1858      1861
      1859      1858      1861      1862      1859      1858      1861      1863
      1859      1858      1861      1864      1860      1858      1861      1862
      1860      1858      1861      1863      1860      1858      1861      1864
      1865      1866      1881      1882      1865      1866      1881      1883
      1865      1866      1881      1887      1866      1865      1869      1870
      1866      1865      1869      1871      1866      1865      1869      1872
      1866      1865      1873      1874      1866      1865      1873      1875
      1866      1865      1873      1876      1866      1865      1877      1878
      1866      1865      1877      1879      1866      1865      1877      1880
      1866      1881      1887      1884      1867      1866      1865      1869
      1867      1866      1865      1873      1867      1866      1865      1877
      1867      1866      1881      1882      1867      1866      1881      1883
      1867      1866      1881      1887      1868      1866      1865      1869
      1868      1866      1865      1873      1868      1866      1865      1877
      1868      1866      1881      1882      1868      1866      1881      1883
      1868      1866      1881      1887      1869      1865      1866      1881
      1869      1865      1873      1874      1869      1865      1873      1875
      1869      1865      1873      1876      1869      1865      1877      1878
      1869      1865      1877      1879      1869      1865      1877      1880
      1870      1869      1865      1873      1870      1869      1865      1877
      1871      1869      1865      1873      1871      1869      1865      1877
      1872      1869      1865      1873      1872      1869      1865      1877
      1873      1865      1866      1881      1873      1865      1877      1878
      1873      1865      1877      1879      1873      1865      1877      1880
      1874      1873      1865      1877      1875      1873      1865      1877
      1876      1873      1865      1877      1877      1865      1866      1881
      1881      1887      1884      1885      1881      1887      1884      1886
      1881      1887      1884      1888      1882      1881      1887      1884
      1883      1881      1887      1884      1884      1888      1889      1890
      1884      1888      1889      1891      1884      1888      1889      1892
      1885      1884      1888      1889      1886      1884      1888      1889
      1887      1884      1888      1889      1888      1889      1892      1893
      1888      1889      1892      1894      1888      1889      1892      1900
      1889      1892      1894      1895      1889      1892      1900      1901
      1889      1892      1900      1902      1889      1892      1900      1903
      1890      1889      1892      1893      1890      1889      1892      1894
      1890      1889      1892      1900      1891      1889      1892      1893
      1891      1889      1892      1894      1891      1889      1892      1900
      1892      1894      1895      1896      1892      1894      1895      1897
      1892      1900      1903      1904      1893      1892      1894      1895
      1893      1892      1900      1901      1893      1892      1900      1902
      1893      1892      1900      1903      1894      1892      1900      1901
      1894      1892      1900      1902      1894      1892      1900      1903
      1894      1895      1897      1898      1894      1895      1897      1899
      1894      1895      1897      1909      1895      1894      1892      1900
      1895      1897      1909      1910      1895      1897      1909      1911
      1895      1897      1909      1912      1896      1895      1897      1898
      1896      1895      1897      1899      1896      1895      1897      1909
      1897      1909      1912      1913      1897      1909      1912      1914
      1897      1909      1912      1915      1898      1897      1909      1910
      1898      1897      1909      1911      1898      1897      1909      1912
      1899      1897      1909      1910      1899      1897      1909      1911
      1899      1897      1909      1912      1900      1903      1904      1905
      1900      1903      1904      1906      1901      1900      1903      1904
      1902      1900      1903      1904      1903      1904      1906      1907
      1903      1904      1906      1908      1903      1904      1906      1956
      1904      1906      1956      1957      1904      1906      1956      1958
      1904      1906      1956      1959      1905      1904      1906      1907
      1905      1904      1906      1908      1905      1904      1906      1956
      1906      1956      1959      1960      1906      1956      1959      1961
      1906      1956      1959      1962      1907      1906      1956      1957
      1907      1906      1956      1958      1907      1906      1956      1959
      1908      1906      1956      1957      1908      1906      1956      1958
      1908      1906      1956      1959      1909      1912      1915      1916
      1909      1912      1915      1917      1909      1912      1915      1918
      1910      1909      1912      1913      1910      1909      1912      1914
      1910      1909      1912      1915      1911      1909      1912      1913
      1911      1909      1912      1914      1911      1909      1912      1915
      1912      1915      1918      1919      1912      1915      1918      1920
      1912      1915      1918      1921      1913      1912      1915      1916
      1913      1912      1915      1917      1913      1912      1915      1918
      1914      1912      1915      1916      1914      1912      1915      1917
      1914      1912      1915      1918      1915      1918      1921      1922
      1915      1918      1921      1923      1915      1918      1921      1924
      1916      1915      1918      1919      1916      1915      1918      1920
      1916      1915      1918      1921      1917      1915      1918      1919
      1917      1915      1918      1920      1917      1915      1918      1921
      1918      1921      1924      1925      1918      1921      1924      1926
      1918      1921      1924      1927      1919      1918      1921      1922
      1919      1918      1921      1923      1919      1918      1921      1924
      1920      1918      1921      1922      1920      1918      1921      1923
      1920      1918      1921      1924      1921      1924      1927      1928
      1921      1924      1927      1929      1922      1921      1924      1925
      1922      1921      1924      1926      1922      1921      1924      1927
      1923      1921      1924      1925      1923      1921      1924      1926
      1923      1921      1924      1927      1924      1927      1929      1930
      1924      1927      1929      1931      1925      1924      1927      1928
      1925      1924      1927      1929      1926      1924      1927      1928
      1926      1924      1927      1929      1927      1929      1931      1932
      1927      1929      1931      1933      1927      1929      1931      1934
      1928      1927      1929      1930      1928      1927      1929      1931
      1929      1931      1934      1935      1929      1931      1934      1936
      1929      1931      1934      1937      1930      1929      1931      1932
      1930      1929      1931      1933      1930      1929      1931      1934
      1931      1934      1937      1938      1931      1934      1937      1939
      1931      1934      1937      1940      1932      1931      1934      1935
      1932      1931      1934      1936      1932      1931      1934      1937
      1933      1931      1934      1935      1933      1931      1934      1936
      1933      1931      1934      1937      1934      1937      1940      1941
      1934      1937      1940      1942      1934      1937      1940      1943
      1935      1934      1937      1938      1935      1934      1937      1939
      1935      1934      1937      1940      1936      1934      1937      1938
      1936      1934      1937      1939      1936      1934      1937      1940
      1937      1940      1943      1944      1937      1940      1943      1945
      1937      1940      1943      1946      1938      1937      1940      1941
      1938      1937      1940      1942      1938      1937      1940      1943
      1939      1937      1940      1941      1939      1937      1940      1942
      1939      1937      1940      1943      1940      1943      1946      1947
      1940      1943      1946      1948      1940      1943      1946      1949
      1941      1940      1943      1944      1941      1940      1943      1945
      1941      1940      1943      1946      1942      1940      1943      1944
      1942      1940      1943      1945      1942      1940      1943      1946
      1943      1946      1949      1950      1943      1946      1949      1951
      1943      1946      1949      1952      1944      1943      1946      1947
      1944      1943      1946      1948      1944      1943      1946      1949
      1945      1943      1946      1947      1945      1943      1946      1948
      1945      1943      1946      1949      1946      1949      1952      1953
      1946      1949      1952      1954      1946      1949      1952      1955
      1947      1946      1949      1950      1947      1946      1949      1951
      1947      1946      1949      1952      1948      1946      1949      1950
      1948      1946      1949      1951      1948      1946      1949      1952
      1950      1949      1952      1953      1950      1949      1952      1954
      1950      1949      1952      1955      1951      1949      1952      1953
      1951      1949      1952      1954      1951      1949      1952      1955
      1956      1959      1962      1963      1956      1959      1962      1964
      1956      1959      1962      1965      1957      1956      1959      1960
      1957      1956      1959      1961      1957      1956      1959      1962
      1958      1956      1959      1960      1958      1956      1959      1961
      1958      1956      1959      1962      1959      1962      1965      1966
      1959      1962      1965      1967      1959      1962      1965      1968
      1960      1959      1962      1963      1960      1959      1962      1964
      1960      1959      1962      1965      1961      1959      1962      1963
      1961      1959      1962      1964      1961      1959      1962      1965
      1962      1965      1968      1969      1962      1965      1968      1970
      1962      1965      1968      1971      1963      1962      1965      1966
      1963      1962      1965      1967      1963      1962      1965      1968
      1964      1962      1965      1966      1964      1962      1965      1967
      1964      1962      1965      1968      1965      1968      1971      1972
      1965      1968      1971      1973      1965      1968      1971      1974
      1966      1965      1968      1969      1966      1965      1968      1970
      1966      1965      1968      1971      1967      1965      1968      1969
      1967      1965      1968      1970      1967      1965      1968      1971
      1968      1971      1974      1975      1968      1971      1974      1976
      1968      1971      1974      1977      1969      1968      1971      1972
      1969      1968      1971      1973      1969      1968      1971      1974
      1970      1968      1971      1972      1970      1968      1971      1973
      1970      1968      1971      1974      1971      1974      1977      1978
      1971      1974      1977      1979      1971      1974      1977      1980
      1972      1971      1974      1975      1972      1971      1974      1976
      1972      1971      1974      1977      1973      1971      1974      1975
      1973      1971      1974      1976      1973      1971      1974      1977
      1974      1977      1980      1981      1974      1977      1980      1982
      1974      1977      1980      1983      1975      1974      1977      1978
      1975      1974      1977      1979      1975      1974      1977      1980
      1976      1974      1977      1978      1976      1974      1977      1979
      1976      1974      1977      1980      1977      1980      1983      1984
      1977      1980      1983      1985      1977      1980      1983      1986
      1978      1977      1980      1981      1978      1977      1980      1982
      1978      1977      1980      1983      1979      1977      1980      1981
      1979      1977      1980      1982      1979      1977      1980      1983
      1980      1983      1986      1987      1980      1983      1986      1988
      1980      1983      1986      1989      1981      1980      1983      1984
      1981      1980      1983      1985      1981      1980      1983      1986
      1982      1980      1983      1984      1982      1980      1983      1985
      1982      1980      1983      1986      1983      1986      1989      1990
      1983      1986      1989      1991      1983      1986      1989      1992
      1984      1983      1986      1987      1984      1983      1986      1988
      1984      1983      1986      1989      1985      1983      1986      1987
      1985      1983      1986      1988      1985      1983      1986      1989
      1986      1989      1992      1993      1986      1989      1992      1994
      1986      1989      1992      1995      1987      1986      1989      1990
      1987      1986      1989      1991      1987      1986      1989      1992
      1988      1986      1989      1990      1988      1986      1989      1991
      1988      1986      1989      1992      1989      1992      1995      1996
      1989      1992      1995      1997      1989      1992      1995      1998
      1990      1989      1992      1993      1990      1989      1992      1994
      1990      1989      1992      1995      1991      1989      1992      1993
      1991      1989      1992      1994      1991      1989      1992      1995
      1993      1992      1995      1996      1993      1992      1995      1997
      1993      1992      1995      1998      1994      1992      1995      1996
      1994      1992      1995      1997      1994      1992      1995      1998
      1999      2000      2015      2016      1999      2000      2015      2017
      1999      2000      2015      2021      2000      1999      2003      2004
      2000      1999      2003      2005      2000      1999      2003      2006
      2000      1999      2007      2008      2000      1999      2007      2009
      2000      1999      2007      2010      2000      1999      2011      2012
      2000      1999      2011      2013      2000      1999      2011      2014
      2000      2015      2021      2018      2001      2000      1999      2003
      2001      2000      1999      2007      2001      2000      1999      2011
      2001      2000      2015      2016      2001      2000      2015      2017
      2001      2000      2015      2021      2002      2000      1999      2003
      2002      2000      1999      2007      2002      2000      1999      2011
      2002      2000      2015      2016      2002      2000      2015      2017
      2002      2000      2015      2021      2003      1999      2000      2015
      2003      1999      2007      2008      2003      1999      2007      2009
      2003      1999      2007      2010      2003      1999      2011      2012
      2003      1999      2011      2013      2003      1999      2011      2014
      2004      2003      1999      2007      2004      2003      1999      2011
      2005      2003      1999      2007      2005      2003      1999      2011
      2006      2003      1999      2007      2006      2003      1999      2011
      2007      1999      2000      2015      2007      1999      2011      2012
      2007      1999      2011      2013      2007      1999      2011      2014
      2008      2007      1999      2011      2009      2007      1999      2011
      2010      2007      1999      2011      2011      1999      2000      2015
      2015      2021      2018      2019      2015      2021      2018      2020
      2015      2021      2018      2022      2016      2015      2021      2018
      2017      2015      2021      2018      2018      2022      2023      2024
      2018      2022      2023      2025      2018      2022      2023      2026
      2019      2018      2022      2023      2020      2018      2022      2023
      2021      2018      2022      2023      2022      2023      2026      2027
      2022      2023      2026      2028      2022      2023      2026      2034
      2023      2026      2028      2029      2023      2026      2034      2035
      2023      2026      2034      2036      2023      2026      2034      2037
      2024      2023      2026      2027      2024      2023      2026      2028
      2024      2023      2026      2034      2025      2023      2026      2027
      2025      2023      2026      2028      2025      2023      2026      2034
      2026      2028      2029      2030      2026      2028      2029      2031
      2026      2034      2037      2038      2027      2026      2028      2029
      2027      2026      2034      2035      2027      2026      2034      2036
      2027      2026      2034      2037      2028      2026      2034      2035
      2028      2026      2034      2036      2028      2026      2034      2037
      2028      2029      2031      2032      2028      2029      2031      2033
      2028      2029      2031      2043      2029      2028      2026      2034
      2029      2031      2043      2044      2029      2031      2043      2045
      2029      2031      2043      2046      2030      2029      2031      2032
      2030      2029      2031      2033      2030      2029      2031      2043
      2031      2043      2046      2047      2031      2043      2046      2048
      2031      2043      2046      2049      2032      2031      2043      2044
      2032      2031      2043      2045      2032      2031      2043      2046
      2033      2031      2043      2044      2033      2031      2043      2045
      2033      2031      2043      2046      2034      2037      2038      2039
      2034      2037      2038      2040      2035      2034      2037      2038
      2036      2034      2037      2038      2037      2038      2040      2041
      2037      2038      2040      2042      2037      2038      2040      2090
      2038      2040      2090      2091      2038      2040      2090      2092
      2038      2040      2090      2093      2039      2038      2040      2041
      2039      2038      2040      2042      2039      2038      2040      2090
      2040      2090      2093      2094      2040      2090      2093      2095
      2040      2090      2093      2096      2041      2040      2090      2091
      2041      2040      2090      2092      2041      2040      2090      2093
      2042      2040      2090      2091      2042      2040      2090      2092
      2042      2040      2090      2093      2043      2046      2049      2050
      2043      2046      2049      2051      2043      2046      2049      2052
      2044      2043      2046      2047      2044      2043      2046      2048
      2044      2043      2046      2049      2045      2043      2046      2047
      2045      2043      2046      2048      2045      2043      2046      2049
      2046      2049      2052      2053      2046      2049      2052      2054
      2046      2049      2052      2055      2047      2046      2049      2050
      2047      2046      2049      2051      2047      2046      2049      2052
      2048      2046      2049      2050      2048      2046      2049      2051
      2048      2046      2049      2052      2049      2052      2055      2056
      2049      2052      2055      2057      2049      2052      2055      2058
      2050      2049      2052      2053      2050      2049      2052      2054
      2050      2049      2052      2055      2051      2049      2052      2053
      2051      2049      2052      2054      2051      2049      2052      2055
      2052      2055      2058      2059      2052      2055      2058      2060
      2052      2055      2058      2061      2053      2052      2055      2056
      2053      2052      2055      2057      2053      2052      2055      2058
      2054      2052      2055      2056      2054      2052      2055      2057
      2054      2052      2055      2058      2055      2058      2061      2062
      2055      2058      2061      2063      2056      2055      2058      2059
      2056      2055      2058      2060      2056      2055      2058      2061
      2057      2055      2058      2059      2057      2055      2058      2060
      2057      2055      2058      2061      2058      2061      2063      2064
      2058      2061      2063      2065      2059      2058      2061      2062
      2059      2058      2061      2063      2060      2058      2061      2062
      2060      2058      2061      2063      2061      2063      2065      2066
      2061      2063      2065      2067      2061      2063      2065      2068
      2062      2061      2063      2064      2062      2061      2063      2065
      2063      2065      2068      2069      2063      2065      2068      2070
      2063      2065      2068      2071      2064      2063      2065      2066
      2064      2063      2065      2067      2064      2063      2065      2068
      2065      2068      2071      2072      2065      2068      2071      2073
      2065      2068      2071      2074      2066      2065      2068      2069
      2066      2065      2068      2070      2066      2065      2068      2071
      2067      2065      2068      2069      2067      2065      2068      2070
      2067      2065      2068      2071      2068      2071      2074      2075
      2068      2071      2074      2076      2068      2071      2074      2077
      2069      2068      2071      2072      2069      2068      2071      2073
      2069      2068      2071      2074      2070      2068      2071      2072
      2070      2068      2071      2073      2070      2068      2071      2074
      2071      2074      2077      2078      2071      2074      2077      2079
      2071      2074      2077      2080      2072      2071      2074      2075
      2072      2071      2074      2076      2072      2071      2074      2077
      2073      2071      2074      2075      2073      2071      2074      2076
      2073      2071      2074      2077      2074      2077      2080      2081
      2074      2077      2080      2082      2074      2077      2080      2083
      2075      2074      2077      2078      2075      2074      2077      2079
      2075      2074      2077      2080      2076      2074      2077      2078
      2076      2074      2077      2079      2076      2074      2077      2080
      2077      2080      2083      2084      2077      2080      2083      2085
      2077      2080      2083      2086      2078      2077      2080      2081
      2078      2077      2080      2082      2078      2077      2080      2083
      2079      2077      2080      2081      2079      2077      2080      2082
      2079      2077      2080      2083      2080      2083      2086      2087
      2080      2083      2086      2088      2080      2083      2086      2089
      2081      2080      2083      2084      2081      2080      2083      2085
      2081      2080      2083      2086      2082      2080      2083      2084
      2082      2080      2083      2085      2082      2080      2083      2086
      2084      2083      2086      2087      2084      2083      2086      2088
      2084      2083      2086      2089      2085      2083      2086      2087
      2085      2083      2086      2088      2085      2083      2086      2089
      2090      2093      2096      2097      2090      2093      2096      2098
      2090      2093      2096      2099      2091      2090      2093      2094
      2091      2090      2093      2095      2091      2090      2093      2096
      2092      2090      2093      2094      2092      2090      2093      2095
      2092      2090      2093      2096      2093      2096      2099      2100
      2093      2096      2099      2101      2093      2096      2099      2102
      2094      2093      2096      2097      2094      2093      2096      2098
      2094      2093      2096      2099      2095      2093      2096      2097
      2095      2093      2096      2098      2095      2093      2096      2099
      2096      2099      2102      2103      2096      2099      2102      2104
      2096      2099      2102      2105      2097      2096      2099      2100
      2097      2096      2099      2101      2097      2096      2099      2102
      2098      2096      2099      2100      2098      2096      2099      2101
      2098      2096      2099      2102      2099      2102      2105      2106
      2099      2102      2105      2107      2099      2102      2105      2108
      2100      2099      2102      2103      2100      2099      2102      2104
      2100      2099      2102      2105      2101      2099      2102      2103
      2101      2099      2102      2104      2101      2099      2102      2105
      2102      2105      2108      2109      2102      2105      2108      2110
      2102      2105      2108      2111      2103      2102      2105      2106
      2103      2102      2105      2107      2103      2102      2105      2108
      2104      2102      2105      2106      2104      2102      2105      2107
      2104      2102      2105      2108      2105      2108      2111      2112
      2105      2108      2111      2113      2105      2108      2111      2114
      2106      2105      2108      2109      2106      2105      2108      2110
      2106      2105      2108      2111      2107      2105      2108      2109
      2107      2105      2108      2110      2107      2105      2108      2111
      2108      2111      2114      2115      2108      2111      2114      2116
      2108      2111      2114      2117      2109      2108      2111      2112
      2109      2108      2111      2113      2109      2108      2111      2114
      2110      2108      2111      2112      2110      2108      2111      2113
      2110      2108      2111      2114      2111      2114      2117      2118
      2111      2114      2117      2119      2111      2114      2117      2120
      2112      2111      2114      2115      2112      2111      2114      2116
      2112      2111      2114      2117      2113      2111      2114      2115
      2113      2111      2114      2116      2113      2111      2114      2117
      2114      2117      2120      2121      2114      2117      2120      2122
      2114      2117      2120      2123      2115      2114      2117      2118
      2115      2114      2117      2119      2115      2114      2117      2120
      2116      2114      2117      2118      2116      2114      2117      2119
      2116      2114      2117      2120      2117      2120      2123      2124
      2117      2120      2123      2125      2117      2120      2123      2126
      2118      2117      2120      2121      2118      2117      2120      2122
      2118      2117      2120      2123      2119      2117      2120      2121
      2119      2117      2120      2122      2119      2117      2120      2123
      2120      2123      2126      2127      2120      2123      2126      2128
      2120      2123      2126      2129      2121      2120      2123      2124
      2121      2120      2123      2125      2121      2120      2123      2126
      2122      2120      2123      2124      2122      2120      2123      2125
      2122      2120      2123      2126      2123      2126      2129      2130
      2123      2126      2129      2131      2123      2126      2129      2132
      2124      2123      2126      2127      2124      2123      2126      2128
      2124      2123      2126      2129      2125      2123      2126      2127
      2125      2123      2126      2128      2125      2123      2126      2129
      2127      2126      2129      2130      2127      2126      2129      2131
      2127      2126      2129      2132      2128      2126      2129      2130
      2128      2126      2129      2131      2128      2126      2129      2132
      2133      2137      2139      2140      2133      2137      2139      2141
      2133      2137      2142      2143      2133      2137      2142      2144
      2133      2137      2142      2148      2134      2133      2137      2138
      2134      2133      2137      2139      2134      2133      2137      2142
      2135      2133      2137      2138      2135      2133      2137      2139
      2135      2133      2137      2142      2136      2133      2137      2138
      2136      2133      2137      2139      2136      2133      2137      2142
      2137      2142      2148      2145      2138      2137      2139      2140
      2138      2137      2139      2141      2138      2137      2142      2143
      2138      2137      2142      2144      2138      2137      2142      2148
      2139      2137      2142      2143      2139      2137      2142      2144
      2139      2137      2142      2148      2140      2139      2137      2142
      2141      2139      2137      2142      2142      2148      2145      2146
      2142      2148      2145      2147      2142      2148      2145      2149
      2143      2142      2148      2145      2144      2142      2148      2145
      2145      2149      2150      2151      2145      2149      2150      2152
      2145      2149      2150      2153      2146      2145      2149      2150
      2147      2145      2149      2150      2148      2145      2149      2150
      2149      2150      2153      2154      2149      2150      2153      2155
      2149      2150      2153      2161      2150      2153      2155      2156
      2150      2153      2161      2162      2150      2153      2161      2163
      2150      2153      2161      2164      2151      2150      2153      2154
      2151      2150      2153      2155      2151      2150      2153      2161
      2152      2150      2153      2154      2152      2150      2153      2155
      2152      2150      2153      2161      2153      2155      2156      2157
      2153      2155      2156      2158      2153      2161      2164      2165
      2154      2153      2155      2156      2154      2153      2161      2162
      2154      2153      2161      2163      2154      2153      2161      2164
      2155      2153      2161      2162      2155      2153      2161      2163
      2155      2153      2161      2164      2155      2156      2158      2159
      2155      2156      2158      2160      2155      2156      2158      2170
      2156      2155      2153      2161      2156      2158      2170      2171
      2156      2158      2170      2172      2156      2158      2170      2173
      2157      2156      2158      2159      2157      2156      2158      2160
      2157      2156      2158      2170      2158      2170      2173      2174
      2158      2170      2173      2175      2158      2170      2173      2176
      2159      2158      2170      2171      2159      2158      2170      2172
      2159      2158      2170      2173      2160      2158      2170      2171
      2160      2158      2170      2172      2160      2158      2170      2173
      2161      2164      2165      2166      2161      2164      2165      2167
      2162      2161      2164      2165      2163      2161      2164      2165
      2164      2165      2167      2168      2164      2165      2167      2169
      2164      2165      2167      2217      2165      2167      2217      2218
      2165      2167      2217      2219      2165      2167      2217      2220
      2166      2165      2167      2168      2166      2165      2167      2169
      2166      2165      2167      2217      2167      2217      2220      2221
      2167      2217      2220      2222      2167      2217      2220      2223
      2168      2167      2217      2218      2168      2167      2217      2219
      2168      2167      2217      2220      2169      2167      2217      2218
      2169      2167      2217      2219      2169      2167      2217      2220
      2170      2173      2176      2177      2170      2173      2176      2178
      2170      2173      2176      2179      2171      2170      2173      2174
      2171      2170      2173      2175      2171      2170      2173      2176
      2172      2170      2173      2174      2172      2170      2173      2175
      2172      2170      2173      2176      2173      2176      2179      2180
      2173      2176      2179      2181      2173      2176      2179      2182
      2174      2173      2176      2177      2174      2173      2176      2178
      2174      2173      2176      2179      2175      2173      2176      2177
      2175      2173      2176      2178      2175      2173      2176      2179
      2176      2179      2182      2183      2176      2179      2182      2184
      2176      2179      2182      2185      2177      2176      2179      2180
      2177      2176      2179      2181      2177      2176      2179      2182
      2178      2176      2179      2180      2178      2176      2179      2181
      2178      2176      2179      2182      2179      2182      2185      2186
      2179      2182      2185      2187      2179      2182      2185      2188
      2180      2179      2182      2183      2180      2179      2182      2184
      2180      2179      2182      2185      2181      2179      2182      2183
      2181      2179      2182      2184      2181      2179      2182      2185
      2182      2185      2188      2189      2182      2185      2188      2190
      2183      2182      2185      2186      2183      2182      2185      2187
      2183      2182      2185      2188      2184      2182      2185      2186
      2184      2182      2185      2187      2184      2182      2185      2188
      2185      2188      2190      2191      2185      2188      2190      2192
      2186      2185      2188      2189      2186      2185      2188      2190
      2187      2185      2188      2189      2187      2185      2188      2190
      2188      2190      2192      2193      2188      2190      2192      2194
      2188      2190      2192      2195      2189      2188      2190      2191
      2189      2188      2190      2192      2190      2192      2195      2196
      2190      2192      2195      2197      2190      2192      2195      2198
      2191      2190      2192      2193      2191      2190      2192      2194
      2191      2190      2192      2195      2192      2195      2198      2199
      2192      2195      2198      2200      2192      2195      2198      2201
      2193      2192      2195      2196      2193      2192      2195      2197
      2193      2192      2195      2198      2194      2192      2195      2196
      2194      2192      2195      2197      2194      2192      2195      2198
      2195      2198      2201      2202      2195      2198      2201      2203
      2195      2198      2201      2204      2196      2195      2198      2199
      2196      2195      2198      2200      2196      2195      2198      2201
      2197      2195      2198      2199      2197      2195      2198      2200
      2197      2195      2198      2201      2198      2201      2204      2205
      2198      2201      2204      2206      2198      2201      2204      2207
      2199      2198      2201      2202      2199      2198      2201      2203
      2199      2198      2201      2204      2200      2198      2201      2202
      2200      2198      2201      2203      2200      2198      2201      2204
      2201      2204      2207      2208      2201      2204      2207      2209
      2201      2204      2207      2210      2202      2201      2204      2205
      2202      2201      2204      2206      2202      2201      2204      2207
      2203      2201      2204      2205      2203      2201      2204      2206
      2203      2201      2204      2207      2204      2207      2210      2211
      2204      2207      2210      2212      2204      2207      2210      2213
      2205      2204      2207      2208      2205      2204      2207      2209
      2205      2204      2207      2210      2206      2204      2207      2208
      2206      2204      2207      2209      2206      2204      2207      2210
      2207      2210      2213      2214      2207      2210      2213      2215
      2207      2210      2213      2216      2208      2207      2210      2211
      2208      2207      2210      2212      2208      2207      2210      2213
      2209      2207      2210      2211      2209      2207      2210      2212
      2209      2207      2210      2213      2211      2210      2213      2214
      2211      2210      2213      2215      2211      2210      2213      2216
      2212      2210      2213      2214      2212      2210      2213      2215
      2212      2210      2213      2216      2217      2220      2223      2224
      2217      2220      2223      2225      2217      2220      2223      2226
      2218      2217      2220      2221      2218      2217      2220      2222
      2218      2217      2220      2223      2219      2217      2220      2221
      2219      2217      2220      2222      2219      2217      2220      2223
      2220      2223      2226      2227      2220      2223      2226      2228
      2220      2223      2226      2229      2221      2220      2223      2224
      2221      2220      2223      2225      2221      2220      2223      2226
      2222      2220      2223      2224      2222      2220      2223      2225
      2222      2220      2223      2226      2223      2226      2229      2230
      2223      2226      2229      2231      2223      2226      2229      2232
      2224      2223      2226      2227      2224      2223      2226      2228
      2224      2223      2226      2229      2225      2223      2226      2227
      2225      2223      2226      2228      2225      2223      2226      2229
      2226      2229      2232      2233      2226      2229      2232      2234
      2226      2229      2232      2235      2227      2226      2229      2230
      2227      2226      2229      2231      2227      2226      2229      2232
      2228      2226      2229      2230      2228      2226      2229      2231
      2228      2226      2229      2232      2229      2232      2235      2236
      2229      2232      2235      2237      2229      2232      2235      2238
      2230      2229      2232      2233      2230      2229      2232      2234
      2230      2229      2232      2235      2231      2229      2232      2233
      2231      2229      2232      2234      2231      2229      2232      2235
      2232      2235      2238      2239      2232      2235      2238      2240
      2232      2235      2238      2241      2233      2232      2235      2236
      2233      2232      2235      2237      2233      2232      2235      2238
      2234      2232      2235      2236      2234      2232      2235      2237
      2234      2232      2235      2238      2235      2238      2241      2242
      2235      2238      2241      2243      2235      2238      2241      2244
      2236      2235      2238      2239      2236      2235      2238      2240
      2236      2235      2238      2241      2237      2235      2238      2239
      2237      2235      2238      2240      2237      2235      2238      2241
      2238      2241      2244      2245      2238      2241      2244      2246
      2238      2241      2244      2247      2239      2238      2241      2242
      2239      2238      2241      2243      2239      2238      2241      2244
      2240      2238      2241      2242      2240      2238      2241      2243
      2240      2238      2241      2244      2241      2244      2247      2248
      2241      2244      2247      2249      2241      2244      2247      2250
      2242      2241      2244      2245      2242      2241      2244      2246
      2242      2241      2244      2247      2243      2241      2244      2245
      2243      2241      2244      2246      2243      2241      2244      2247
      2244      2247      2250      2251      2244      2247      2250      2252
      2244      2247      2250      2253      2245      2244      2247      2248
      2245      2244      2247      2249      2245      2244      2247      2250
      2246      2244      2247      2248      2246      2244      2247      2249
      2246      2244      2247      2250      2247      2250      2253      2254
      2247      2250      2253      2255      2247      2250      2253      2256
      2248      2247      2250      2251      2248      2247      2250      2252
      2248      2247      2250      2253      2249      2247      2250      2251
      2249      2247      2250      2252      2249      2247      2250      2253
      2250      2253      2256      2257      2250      2253      2256      2258
      2250      2253      2256      2259      2251      2250      2253      2254
      2251      2250      2253      2255      2251      2250      2253      2256
      2252      2250      2253      2254      2252      2250      2253      2255
      2252      2250      2253      2256      2254      2253      2256      2257
      2254      2253      2256      2258      2254      2253      2256      2259
      2255      2253      2256      2257      2255      2253      2256      2258
      2255      2253      2256      2259      2260      2264      2266      2267
      2260      2264      2266      2268      2260      2264      2269      2270
      2260      2264      2269      2271      2260      2264      2269      2275
      2261      2260      2264      2265      2261      2260      2264      2266
      2261      2260      2264      2269      2262      2260      2264      2265
      2262      2260      2264      2266      2262      2260      2264      2269
      2263      2260      2264      2265      2263      2260      2264      2266
      2263      2260      2264      2269      2264      2269      2275      2272
      2265      2264      2266      2267      2265      2264      2266      2268
      2265      2264      2269      2270      2265      2264      2269      2271
      2265      2264      2269      2275      2266      2264      2269      2270
      2266      2264      2269      2271      2266      2264      2269      2275
      2267      2266      2264      2269      2268      2266      2264      2269
      2269      2275      2272      2273      2269      2275      2272      2274
      2269      2275      2272      2276      2270      2269      2275      2272
      2271      2269      2275      2272      2272      2276      2277      2278
      2272      2276      2277      2279      2272      2276      2277      2280
      2273      2272      2276      2277      2274      2272      2276      2277
      2275      2272      2276      2277      2276      2277      2280      2281
      2276      2277      2280      2282      2276      2277      2280      2288
      2277      2280      2282      2283      2277      2280      2288      2289
      2277      2280      2288      2290      2277      2280      2288      2291
      2278      2277      2280      2281      2278      2277      2280      2282
      2278      2277      2280      2288      2279      2277      2280      2281
      2279      2277      2280      2282      2279      2277      2280      2288
      2280      2282      2283      2284      2280      2282      2283      2285
      2280      2288      2291      2292      2281      2280      2282      2283
      2281      2280      2288      2289      2281      2280      2288      2290
      2281      2280      2288      2291      2282      2280      2288      2289
      2282      2280      2288      2290      2282      2280      2288      2291
      2282      2283      2285      2286      2282      2283      2285      2287
      2282      2283      2285      2297      2283      2282      2280      2288
      2283      2285      2297      2298      2283      2285      2297      2299
      2283      2285      2297      2300      2284      2283      2285      2286
      2284      2283      2285      2287      2284      2283      2285      2297
      2285      2297      2300      2301      2285      2297      2300      2302
      2285      2297      2300      2303      2286      2285      2297      2298
      2286      2285      2297      2299      2286      2285      2297      2300
      2287      2285      2297      2298      2287      2285      2297      2299
      2287      2285      2297      2300      2288      2291      2292      2293
      2288      2291      2292      2294      2289      2288      2291      2292
      2290      2288      2291      2292      2291      2292      2294      2295
      2291      2292      2294      2296      2291      2292      2294      2344
      2292      2294      2344      2345      2292      2294      2344      2346
      2292      2294      2344      2347      2293      2292      2294      2295
      2293      2292      2294      2296      2293      2292      2294      2344
      2294      2344      2347      2348      2294      2344      2347      2349
      2294      2344      2347      2350      2295      2294      2344      2345
      2295      2294      2344      2346      2295      2294      2344      2347
      2296      2294      2344      2345      2296      2294      2344      2346
      2296      2294      2344      2347      2297      2300      2303      2304
      2297      2300      2303      2305      2297      2300      2303      2306
      2298      2297      2300      2301      2298      2297      2300      2302
      2298      2297      2300      2303      2299      2297      2300      2301
      2299      2297      2300      2302      2299      2297      2300      2303
      2300      2303      2306      2307      2300      2303      2306      2308
      2300      2303      2306      2309      2301      2300      2303      2304
      2301      2300      2303      2305      2301      2300      2303      2306
      2302      2300      2303      2304      2302      2300      2303      2305
      2302      2300      2303      2306      2303      2306      2309      2310
      2303      2306      2309      2311      2303      2306      2309      2312
      2304      2303      2306      2307      2304      2303      2306      2308
      2304      2303      2306      2309      2305      2303      2306      2307
      2305      2303      2306      2308      2305      2303      2306      2309
      2306      2309      2312      2313      2306      2309      2312      2314
      2306      2309      2312      2315      2307      2306      2309      2310
      2307      2306      2309      2311      2307      2306      2309      2312
      2308      2306      2309      2310      2308      2306      2309      2311
      2308      2306      2309      2312      2309      2312      2315      2316
      2309      2312      2315      2317      2310      2309      2312      2313
      2310      2309      2312      2314      2310      2309      2312      2315
      2311      2309      2312      2313      2311      2309      2312      2314
      2311      2309      2312      2315      2312      2315      2317      2318
      2312      2315      2317      2319      2313      2312      2315      2316
      2313      2312      2315      2317      2314      2312      2315      2316
      2314      2312      2315      2317      2315      2317      2319      2320
      2315      2317      2319      2321      2315      2317      2319      2322
      2316      2315      2317      2318      2316      2315      2317      2319
      2317      2319      2322      2323      2317      2319      2322      2324
      2317      2319      2322      2325      2318      2317      2319      2320
      2318      2317      2319      2321      2318      2317      2319      2322
      2319      2322      2325      2326      2319      2322      2325      2327
      2319      2322      2325      2328      2320      2319      2322      2323
      2320      2319      2322      2324      2320      2319      2322      2325
      2321      2319      2322      2323      2321      2319      2322      2324
      2321      2319      2322      2325      2322      2325      2328      2329
      2322      2325      2328      2330      2322      2325      2328      2331
      2323      2322      2325      2326      2323      2322      2325      2327
      2323      2322      2325      2328      2324      2322      2325      2326
      2324      2322      2325      2327      2324      2322      2325      2328
      2325      2328      2331      2332      2325      2328      2331      2333
      2325      2328      2331      2334      2326      2325      2328      2329
      2326      2325      2328      2330      2326      2325      2328      2331
      2327      2325      2328      2329      2327      2325      2328      2330
      2327      2325      2328      2331      2328      2331      2334      2335
      2328      2331      2334      2336      2328      2331      2334      2337
      2329      2328      2331      2332      2329      2328      2331      2333
      2329      2328      2331      2334      2330      2328      2331      2332
      2330      2328      2331      2333      2330      2328      2331      2334
      2331      2334      2337      2338      2331      2334      2337      2339
      2331      2334      2337      2340      2332      2331      2334      2335
      2332      2331      2334      2336      2332      2331      2334      2337
      2333      2331      2334      2335      2333      2331      2334      2336
      2333      2331      2334      2337      2334      2337      2340      2341
      2334      2337      2340      2342      2334      2337      2340      2343
      2335      2334      2337      2338      2335      2334      2337      2339
      2335      2334      2337      2340      2336      2334      2337      2338
      2336      2334      2337      2339      2336      2334      2337      2340
      2338      2337      2340      2341      2338      2337      2340      2342
      2338      2337      2340      2343      2339      2337      2340      2341
      2339      2337      2340      2342      2339      2337      2340      2343
      2344      2347      2350      2351      2344      2347      2350      2352
      2344      2347      2350      2353      2345      2344      2347      2348
      2345      2344      2347      2349      2345      2344      2347      2350
      2346      2344      2347      2348      2346      2344      2347      2349
      2346      2344      2347      2350      2347      2350      2353      2354
      2347      2350      2353      2355      2347      2350      2353      2356
      2348      2347      2350      2351      2348      2347      2350      2352
      2348      2347      2350      2353      2349      2347      2350      2351
      2349      2347      2350      2352      2349      2347      2350      2353
      2350      2353      2356      2357      2350      2353      2356      2358
      2350      2353      2356      2359      2351      2350      2353      2354
      2351      2350      2353      2355      2351      2350      2353      2356
      2352      2350      2353      2354      2352      2350      2353      2355
      2352      2350      2353      2356      2353      2356      2359      2360
      2353      2356      2359      2361      2353      2356      2359      2362
      2354      2353      2356      2357      2354      2353      2356      2358
      2354      2353      2356      2359      2355      2353      2356      2357
      2355      2353      2356      2358      2355      2353      2356      2359
      2356      2359      2362      2363      2356      2359      2362      2364
      2356      2359      2362      2365      2357      2356      2359      2360
      2357      2356      2359      2361      2357      2356      2359      2362
      2358      2356      2359      2360      2358      2356      2359      2361
      2358      2356      2359      2362      2359      2362      2365      2366
      2359      2362      2365      2367      2359      2362      2365      2368
      2360      2359      2362      2363      2360      2359      2362      2364
      2360      2359      2362      2365      2361      2359      2362      2363
      2361      2359      2362      2364      2361      2359      2362      2365
      2362      2365      2368      2369      2362      2365      2368      2370
      2362      2365      2368      2371      2363      2362      2365      2366
      2363      2362      2365      2367      2363      2362      2365      2368
      2364      2362      2365      2366      2364      2362      2365      2367
      2364      2362      2365      2368      2365      2368      2371      2372
      2365      2368      2371      2373      2365      2368      2371      2374
      2366      2365      2368      2369      2366      2365      2368      2370
      2366      2365      2368      2371      2367      2365      2368      2369
      2367      2365      2368      2370      2367      2365      2368      2371
      2368      2371      2374      2375      2368      2371      2374      2376
      2368      2371      2374      2377      2369      2368      2371      2372
      2369      2368      2371      2373      2369      2368      2371      2374
      2370      2368      2371      2372      2370      2368      2371      2373
      2370      2368      2371      2374      2371      2374      2377      2378
      2371      2374      2377      2379      2371      2374      2377      2380
      2372      2371      2374      2375      2372      2371      2374      2376
      2372      2371      2374      2377      2373      2371      2374      2375
      2373      2371      2374      2376      2373      2371      2374      2377
      2374      2377      2380      2381      2374      2377      2380      2382
      2374      2377      2380      2383      2375      2374      2377      2378
      2375      2374      2377      2379      2375      2374      2377      2380
      2376      2374      2377      2378      2376      2374      2377      2379
      2376      2374      2377      2380      2377      2380      2383      2384
      2377      2380      2383      2385      2377      2380      2383      2386
      2378      2377      2380      2381      2378      2377      2380      2382
      2378      2377      2380      2383      2379      2377      2380      2381
      2379      2377      2380      2382      2379      2377      2380      2383
      2381      2380      2383      2384      2381      2380      2383      2385
      2381      2380      2383      2386      2382      2380      2383      2384
      2382      2380      2383      2385      2382      2380      2383      2386
      2387      2388      2403      2404      2387      2388      2403      2405
      2387      2388      2403      2409      2388      2387      2391      2392
      2388      2387      2391      2393      2388      2387      2391      2394
      2388      2387      2395      2396      2388      2387      2395      2397
      2388      2387      2395      2398      2388      2387      2399      2400
      2388      2387      2399      2401      2388      2387      2399      2402
      2388      2403      2409      2406      2389      2388      2387      2391
      2389      2388      2387      2395      2389      2388      2387      2399
      2389      2388      2403      2404      2389      2388      2403      2405
      2389      2388      2403      2409      2390      2388      2387      2391
      2390      2388      2387      2395      2390      2388      2387      2399
      2390      2388      2403      2404      2390      2388      2403      2405
      2390      2388      2403      2409      2391      2387      2388      2403
      2391      2387      2395      2396      2391      2387      2395      2397
      2391      2387      2395      2398      2391      2387      2399      2400
      2391      2387      2399      2401      2391      2387      2399      2402
      2392      2391      2387      2395      2392      2391      2387      2399
      2393      2391      2387      2395      2393      2391      2387      2399
      2394      2391      2387      2395      2394      2391      2387      2399
      2395      2387      2388      2403      2395      2387      2399      2400
      2395      2387      2399      2401      2395      2387      2399      2402
      2396      2395      2387      2399      2397      2395      2387      2399
      2398      2395      2387      2399      2399      2387      2388      2403
      2403      2409      2406      2407      2403      2409      2406      2408
      2403      2409      2406      2410      2404      2403      2409      2406
      2405      2403      2409      2406      2406      2410      2411      2412
      2406      2410      2411      2413      2406      2410      2411      2414
      2407      2406      2410      2411      2408      2406      2410      2411
      2409      2406      2410      2411      2410      2411      2414      2415
      2410      2411      2414      2416      2410      2411      2414      2422
      2411      2414      2416      2417      2411      2414      2422      2423
      2411      2414      2422      2424      2411      2414      2422      2425
      2412      2411      2414      2415      2412      2411      2414      2416
      2412      2411      2414      2422      2413      2411      2414      2415
      2413      2411      2414      2416      2413      2411      2414      2422
      2414      2416      2417      2418      2414      2416      2417      2419
      2414      2422      2425      2426      2415      2414      2416      2417
      2415      2414      2422      2423      2415      2414      2422      2424
      2415      2414      2422      2425      2416      2414      2422      2423
      2416      2414      2422      2424      2416      2414      2422      2425
      2416      2417      2419      2420      2416      2417      2419      2421
      2416      2417      2419      2431      2417      2416      2414      2422
      2417      2419      2431      2432      2417      2419      2431      2433
      2417      2419      2431      2434      2418      2417      2419      2420
      2418      2417      2419      2421      2418      2417      2419      2431
      2419      2431      2434      2435      2419      2431      2434      2436
      2419      2431      2434      2437      2420      2419      2431      2432
      2420      2419      2431      2433      2420      2419      2431      2434
      2421      2419      2431      2432      2421      2419      2431      2433
      2421      2419      2431      2434      2422      2425      2426      2427
      2422      2425      2426      2428      2423      2422      2425      2426
      2424      2422      2425      2426      2425      2426      2428      2429
      2425      2426      2428      2430      2425      2426      2428      2478
      2426      2428      2478      2479      2426      2428      2478      2480
      2426      2428      2478      2481      2427      2426      2428      2429
      2427      2426      2428      2430      2427      2426      2428      2478
      2428      2478      2481      2482      2428      2478      2481      2483
      2428      2478      2481      2484      2429      2428      2478      2479
      2429      2428      2478      2480      2429      2428      2478      2481
      2430      2428      2478      2479      2430      2428      2478      2480
      2430      2428      2478      2481      2431      2434      2437      2438
      2431      2434      2437      2439      2431      2434      2437      2440
      2432      2431      2434      2435      2432      2431      2434      2436
      2432      2431      2434      2437      2433      2431      2434      2435
      2433      2431      2434      2436      2433      2431      2434      2437
      2434      2437      2440      2441      2434      2437      2440      2442
      2434      2437      2440      2443      2435      2434      2437      2438
      2435      2434      2437      2439      2435      2434      2437      2440
      2436      2434      2437      2438      2436      2434      2437      2439
      2436      2434      2437      2440      2437      2440      2443      2444
      2437      2440      2443      2445      2437      2440      2443      2446
      2438      2437      2440      2441      2438      2437      2440      2442
      2438      2437      2440      2443      2439      2437      2440      2441
      2439      2437      2440      2442      2439      2437      2440      2443
      2440      2443      2446      2447      2440      2443      2446      2448
      2440      2443      2446      2449      2441      2440      2443      2444
      2441      2440      2443      2445      2441      2440      2443      2446
      2442      2440      2443      2444      2442      2440      2443      2445
      2442      2440      2443      2446      2443      2446      2449      2450
      2443      2446      2449      2451      2444      2443      2446      2447
      2444      2443      2446      2448      2444      2443      2446      2449
      2445      2443      2446      2447      2445      2443      2446      2448
      2445      2443      2446      2449      2446      2449      2451      2452
      2446      2449      2451      2453      2447      2446      2449      2450
      2447      2446      2449      2451      2448      2446      2449      2450
      2448      2446      2449      2451      2449      2451      2453      2454
      2449      2451      2453      2455      2449      2451      2453      2456
      2450      2449      2451      2452      2450      2449      2451      2453
      2451      2453      2456      2457      2451      2453      2456      2458
      2451      2453      2456      2459      2452      2451      2453      2454
      2452      2451      2453      2455      2452      2451      2453      2456
      2453      2456      2459      2460      2453      2456      2459      2461
      2453      2456      2459      2462      2454      2453      2456      2457
      2454      2453      2456      2458      2454      2453      2456      2459
      2455      2453      2456      2457      2455      2453      2456      2458
      2455      2453      2456      2459      2456      2459      2462      2463
      2456      2459      2462      2464      2456      2459      2462      2465
      2457      2456      2459      2460      2457      2456      2459      2461
      2457      2456      2459      2462      2458      2456      2459      2460
      2458      2456      2459      2461      2458      2456      2459      2462
      2459      2462      2465      2466      2459      2462      2465      2467
      2459      2462      2465      2468      2460      2459      2462      2463
      2460      2459      2462      2464      2460      2459      2462      2465
      2461      2459      2462      2463      2461      2459      2462      2464
      2461      2459      2462      2465      2462      2465      2468      2469
      2462      2465      2468      2470      2462      2465      2468      2471
      2463      2462      2465      2466      2463      2462      2465      2467
      2463      2462      2465      2468      2464      2462      2465      2466
      2464      2462      2465      2467      2464      2462      2465      2468
      2465      2468      2471      2472      2465      2468      2471      2473
      2465      2468      2471      2474      2466      2465      2468      2469
      2466      2465      2468      2470      2466      2465      2468      2471
      2467      2465      2468      2469      2467      2465      2468      2470
      2467      2465      2468      2471      2468      2471      2474      2475
      2468      2471      2474      2476      2468      2471      2474      2477
      2469      2468      2471      2472      2469      2468      2471      2473
      2469      2468      2471      2474      2470      2468      2471      2472
      2470      2468      2471      2473      2470      2468      2471      2474
      2472      2471      2474      2475      2472      2471      2474      2476
      2472      2471      2474      2477      2473      2471      2474      2475
      2473      2471      2474      2476      2473      2471      2474      2477
      2478      2481      2484      2485      2478      2481      2484      2486
      2478      2481      2484      2487      2479      2478      2481      2482
      2479      2478      2481      2483      2479      2478      2481      2484
      2480      2478      2481      2482      2480      2478      2481      2483
      2480      2478      2481      2484      2481      2484      2487      2488
      2481      2484      2487      2489      2481      2484      2487      2490
      2482      2481      2484      2485      2482      2481      2484      2486
      2482      2481      2484      2487      2483      2481      2484      2485
      2483      2481      2484      2486      2483      2481      2484      2487
      2484      2487      2490      2491      2484      2487      2490      2492
      2484      2487      2490      2493      2485      2484      2487      2488
      2485      2484      2487      2489      2485      2484      2487      2490
      2486      2484      2487      2488      2486      2484      2487      2489
      2486      2484      2487      2490      2487      2490      2493      2494
      2487      2490      2493      2495      2487      2490      2493      2496
      2488      2487      2490      2491      2488      2487      2490      2492
      2488      2487      2490      2493      2489      2487      2490      2491
      2489      2487      2490      2492      2489      2487      2490      2493
      2490      2493      2496      2497      2490      2493      2496      2498
      2490      2493      2496      2499      2491      2490      2493      2494
      2491      2490      2493      2495      2491      2490      2493      2496
      2492      2490      2493      2494      2492      2490      2493      2495
      2492      2490      2493      2496      2493      2496      2499      2500
      2493      2496      2499      2501      2493      2496      2499      2502
      2494      2493      2496      2497      2494      2493      2496      2498
      2494      2493      2496      2499      2495      2493      2496      2497
      2495      2493      2496      2498      2495      2493      2496      2499
      2496      2499      2502      2503      2496      2499      2502      2504
      2496      2499      2502      2505      2497      2496      2499      2500
      2497      2496      2499      2501      2497      2496      2499      2502
      2498      2496      2499      2500      2498      2496      2499      2501
      2498      2496      2499      2502      2499      2502      2505      2506
      2499      2502      2505      2507      2499      2502      2505      2508
      2500      2499      2502      2503      2500      2499      2502      2504
      2500      2499      2502      2505      2501      2499      2502      2503
      2501      2499      2502      2504      2501      2499      2502      2505
      2502      2505      2508      2509      2502      2505      2508      2510
      2502      2505      2508      2511      2503      2502      2505      2506
      2503      2502      2505      2507      2503      2502      2505      2508
      2504      2502      2505      2506      2504      2502      2505      2507
      2504      2502      2505      2508      2505      2508      2511      2512
      2505      2508      2511      2513      2505      2508      2511      2514
      2506      2505      2508      2509      2506      2505      2508      2510
      2506      2505      2508      2511      2507      2505      2508      2509
      2507      2505      2508      2510      2507      2505      2508      2511
      2508      2511      2514      2515      2508      2511      2514      2516
      2508      2511      2514      2517      2509      2508      2511      2512
      2509      2508      2511      2513      2509      2508      2511      2514
      2510      2508      2511      2512      2510      2508      2511      2513
      2510      2508      2511      2514      2511      2514      2517      2518
      2511      2514      2517      2519      2511      2514      2517      2520
      2512      2511      2514      2515      2512      2511      2514      2516
      2512      2511      2514      2517      2513      2511      2514      2515
      2513      2511      2514      2516      2513      2511      2514      2517
      2515      2514      2517      2518      2515      2514      2517      2519
      2515      2514      2517      2520      2516      2514      2517      2518
      2516      2514      2517      2519      2516      2514      2517      2520
      2521      2522      2537      2538      2521      2522      2537      2539
      2521      2522      2537      2543      2522      2521      2525      2526
      2522      2521      2525      2527      2522      2521      2525      2528
      2522      2521      2529      2530      2522      2521      2529      2531
      2522      2521      2529      2532      2522      2521      2533      2534
      2522      2521      2533      2535      2522      2521      2533      2536
      2522      2537      2543      2540      2523      2522      2521      2525
      2523      2522      2521      2529      2523      2522      2521      2533
      2523      2522      2537      2538      2523      2522      2537      2539
      2523      2522      2537      2543      2524      2522      2521      2525
      2524      2522      2521      2529      2524      2522      2521      2533
      2524      2522      2537      2538      2524      2522      2537      2539
      2524      2522      2537      2543      2525      2521      2522      2537
      2525      2521      2529      2530      2525      2521      2529      2531
      2525      2521      2529      2532      2525      2521      2533      2534
      2525      2521      2533      2535      2525      2521      2533      2536
      2526      2525      2521      2529      2526      2525      2521      2533
      2527      2525      2521      2529      2527      2525      2521      2533
      2528      2525      2521      2529      2528      2525      2521      2533
      2529      2521      2522      2537      2529      2521      2533      2534
      2529      2521      2533      2535      2529      2521      2533      2536
      2530      2529      2521      2533      2531      2529      2521      2533
      2532      2529      2521      2533      2533      2521      2522      2537
      2537      2543      2540      2541      2537      2543      2540      2542
      2537      2543      2540      2544      2538      2537      2543      2540
      2539      2537      2543      2540      2540      2544      2545      2546
      2540      2544      2545      2547      2540      2544      2545      2548
      2541      2540      2544      2545      2542      2540      2544      2545
      2543      2540      2544      2545      2544      2545      2548      2549
      2544      2545      2548      2550      2544      2545      2548      2556
      2545      2548      2550      2551      2545      2548      2556      2557
      2545      2548      2556      2558      2545      2548      2556      2559
      2546      2545      2548      2549      2546      2545      2548      2550
      2546      2545      2548      2556      2547      2545      2548      2549
      2547      2545      2548      2550      2547      2545      2548      2556
      2548      2550      2551      2552      2548      2550      2551      2553
      2548      2556      2559      2560      2549      2548      2550      2551
      2549      2548      2556      2557      2549      2548      2556      2558
      2549      2548      2556      2559      2550      2548      2556      2557
      2550      2548      2556      2558      2550      2548      2556      2559
      2550      2551      2553      2554      2550      2551      2553      2555
      2550      2551      2553      2565      2551      2550      2548      2556
      2551      2553      2565      2566      2551      2553      2565      2567
      2551      2553      2565      2568      2552      2551      2553      2554
      2552      2551      2553      2555      2552      2551      2553      2565
      2553      2565      2568      2569      2553      2565      2568      2570
      2553      2565      2568      2571      2554      2553      2565      2566
      2554      2553      2565      2567      2554      2553      2565      2568
      2555      2553      2565      2566      2555      2553      2565      2567
      2555      2553      2565      2568      2556      2559      2560      2561
      2556      2559      2560      2562      2557      2556      2559      2560
      2558      2556      2559      2560      2559      2560      2562      2563
      2559      2560      2562      2564      2559      2560      2562      2612
      2560      2562      2612      2613      2560      2562      2612      2614
      2560      2562      2612      2615      2561      2560      2562      2563
      2561      2560      2562      2564      2561      2560      2562      2612
      2562      2612      2615      2616      2562      2612      2615      2617
      2562      2612      2615      2618      2563      2562      2612      2613
      2563      2562      2612      2614      2563      2562      2612      2615
      2564      2562      2612      2613      2564      2562      2612      2614
      2564      2562      2612      2615      2565      2568      2571      2572
      2565      2568      2571      2573      2565      2568      2571      2574
      2566      2565      2568      2569      2566      2565      2568      2570
      2566      2565      2568      2571      2567      2565      2568      2569
      2567      2565      2568      2570      2567      2565      2568      2571
      2568      2571      2574      2575      2568      2571      2574      2576
      2568      2571      2574      2577      2569      2568      2571      2572
      2569      2568      2571      2573      2569      2568      2571      2574
      2570      2568      2571      2572      2570      2568      2571      2573
      2570      2568      2571      2574      2571      2574      2577      2578
      2571      2574      2577      2579      2571      2574      2577      2580
      2572      2571      2574      2575      2572      2571      2574      2576
      2572      2571      2574      2577      2573      2571      2574      2575
      2573      2571      2574      2576      2573      2571      2574      2577
      2574      2577      2580      2581      2574      2577      2580      2582
      2574      2577      2580      2583      2575      2574      2577      2578
      2575      2574      2577      2579      2575      2574      2577      2580
      2576      2574      2577      2578      2576      2574      2577      2579
      2576      2574      2577      2580      2577      2580      2583      2584
      2577      2580      2583      2585      2578      2577      2580      2581
      2578      2577      2580      2582      2578      2577      2580      2583
      2579      2577      2580      2581      2579      2577      2580      2582
      2579      2577      2580      2583      2580      2583      2585      2586
      2580      2583      2585      2587      2581      2580      2583      2584
      2581      2580      2583      2585      2582      2580      2583      2584
      2582      2580      2583      2585      2583      2585      2587      2588
      2583      2585      2587      2589      2583      2585      2587      2590
      2584      2583      2585      2586      2584      2583      2585      2587
      2585      2587      2590      2591      2585      2587      2590      2592
      2585      2587      2590      2593      2586      2585      2587      2588
      2586      2585      2587      2589      2586      2585      2587      2590
      2587      2590      2593      2594      2587      2590      2593      2595
      2587      2590      2593      2596      2588      2587      2590      2591
      2588      2587      2590      2592      2588      2587      2590      2593
      2589      2587      2590      2591      2589      2587      2590      2592
      2589      2587      2590      2593      2590      2593      2596      2597
      2590      2593      2596      2598      2590      2593      2596      2599
      2591      2590      2593      2594      2591      2590      2593      2595
      2591      2590      2593      2596      2592      2590      2593      2594
      2592      2590      2593      2595      2592      2590      2593      2596
      2593      2596      2599      2600      2593      2596      2599      2601
      2593      2596      2599      2602      2594      2593      2596      2597
      2594      2593      2596      2598      2594      2593      2596      2599
      2595      2593      2596      2597      2595      2593      2596      2598
      2595      2593      2596      2599      2596      2599      2602      2603
      2596      2599      2602      2604      2596      2599      2602      2605
      2597      2596      2599      2600      2597      2596      2599      2601
      2597      2596      2599      2602      2598      2596      2599      2600
      2598      2596      2599      2601      2598      2596      2599      2602
      2599      2602      2605      2606      2599      2602      2605      2607
      2599      2602      2605      2608      2600      2599      2602      2603
      2600      2599      2602      2604      2600      2599      2602      2605
      2601      2599      2602      2603      2601      2599      2602      2604
      2601      2599      2602      2605      2602      2605      2608      2609
      2602      2605      2608      2610      2602      2605      2608      2611
      2603      2602      2605      2606      2603      2602      2605      2607
      2603      2602      2605      2608      2604      2602      2605      2606
      2604      2602      2605      2607      2604      2602      2605      2608
      2606      2605      2608      2609      2606      2605      2608      2610
      2606      2605      2608      2611      2607      2605      2608      2609
      2607      2605      2608      2610      2607      2605      2608      2611
      2612      2615      2618      2619      2612      2615      2618      2620
      2612      2615      2618      2621      2613      2612      2615      2616
      2613      2612      2615      2617      2613      2612      2615      2618
      2614      2612      2615      2616      2614      2612      2615      2617
      2614      2612      2615      2618      2615      2618      2621      2622
      2615      2618      2621      2623      2615      2618      2621      2624
      2616      2615      2618      2619      2616      2615      2618      2620
      2616      2615      2618      2621      2617      2615      2618      2619
      2617      2615      2618      2620      2617      2615      2618      2621
      2618      2621      2624      2625      2618      2621      2624      2626
      2618      2621      2624      2627      2619      2618      2621      2622
      2619      2618      2621      2623      2619      2618      2621      2624
      2620      2618      2621      2622      2620      2618      2621      2623
      2620      2618      2621      2624      2621      2624      2627      2628
      2621      2624      2627      2629      2621      2624      2627      2630
      2622      2621      2624      2625      2622      2621      2624      2626
      2622      2621      2624      2627      2623      2621      2624      2625
      2623      2621      2624      2626      2623      2621      2624      2627
      2624      2627      2630      2631      2624      2627      2630      2632
      2624      2627      2630      2633      2625      2624      2627      2628
      2625      2624      2627      2629      2625      2624      2627      2630
      2626      2624      2627      2628      2626      2624      2627      2629
      2626      2624      2627      2630      2627      2630      2633      2634
      2627      2630      2633      2635      2627      2630      2633      2636
      2628      2627      2630      2631      2628      2627      2630      2632
      2628      2627      2630      2633      2629      2627      2630      2631
      2629      2627      2630      2632      2629      2627      2630      2633
      2630      2633      2636      2637      2630      2633      2636      2638
      2630      2633      2636      2639      2631      2630      2633      2634
      2631      2630      2633      2635      2631      2630      2633      2636
      2632      2630      2633      2634      2632      2630      2633      2635
      2632      2630      2633      2636      2633      2636      2639      2640
      2633      2636      2639      2641      2633      2636      2639      2642
      2634      2633      2636      2637      2634      2633      2636      2638
      2634      2633      2636      2639      2635      2633      2636      2637
      2635      2633      2636      2638      2635      2633      2636      2639
      2636      2639      2642      2643      2636      2639      2642      2644
      2636      2639      2642      2645      2637      2636      2639      2640
      2637      2636      2639      2641      2637      2636      2639      2642
      2638      2636      2639      2640      2638      2636      2639      2641
      2638      2636      2639      2642      2639      2642      2645      2646
      2639      2642      2645      2647      2639      2642      2645      2648
      2640      2639      2642      2643      2640      2639      2642      2644
      2640      2639      2642      2645      2641      2639      2642      2643
      2641      2639      2642      2644      2641      2639      2642      2645
      2642      2645      2648      2649      2642      2645      2648      2650
      2642      2645      2648      2651      2643      2642      2645      2646
      2643      2642      2645      2647      2643      2642      2645      2648
      2644      2642      2645      2646      2644      2642      2645      2647
      2644      2642      2645      2648      2645      2648      2651      2652
      2645      2648      2651      2653      2645      2648      2651      2654
      2646      2645      2648      2649      2646      2645      2648      2650
      2646      2645      2648      2651      2647      2645      2648      2649
      2647      2645      2648      2650      2647      2645      2648      2651
      2649      2648      2651      2652      2649      2648      2651      2653
      2649      2648      2651      2654      2650      2648      2651      2652
      2650      2648      2651      2653      2650      2648      2651      2654
      2655      2659      2661      2662      2655      2659      2661      2663
      2655      2659      2664      2665      2655      2659      2664      2666
      2655      2659      2664      2670      2656      2655      2659      2660
      2656      2655      2659      2661      2656      2655      2659      2664
      2657      2655      2659      2660      2657      2655      2659      2661
      2657      2655      2659      2664      2658      2655      2659      2660
      2658      2655      2659      2661      2658      2655      2659      2664
      2659      2664      2670      2667      2660      2659      2661      2662
      2660      2659      2661      2663      2660      2659      2664      2665
      2660      2659      2664      2666      2660      2659      2664      2670
      2661      2659      2664      2665      2661      2659      2664      2666
      2661      2659      2664      2670      2662      2661      2659      2664
      2663      2661      2659      2664      2664      2670      2667      2668
      2664      2670      2667      2669      2664      2670      2667      2671
      2665      2664      2670      2667      2666      2664      2670      2667
      2667      2671      2672      2673      2667      2671      2672      2674
      2667      2671      2672      2675      2668      2667      2671      2672
      2669      2667      2671      2672      2670      2667      2671      2672
      2671      2672      2675      2676      2671      2672      2675      2677
      2671      2672      2675      2683      2672      2675      2677      2678
      2672      2675      2683      2684      2672      2675      2683      2685
      2672      2675      2683      2686      2673      2672      2675      2676
      2673      2672      2675      2677      2673      2672      2675      2683
      2674      2672      2675      2676      2674      2672      2675      2677
      2674      2672      2675      2683      2675      2677      2678      2679
      2675      2677      2678      2680      2675      2683      2686      2687
      2676      2675      2677      2678      2676      2675      2683      2684
      2676      2675      2683      2685      2676      2675      2683      2686
      2677      2675      2683      2684      2677      2675      2683      2685
      2677      2675      2683      2686      2677      2678      2680      2681
      2677      2678      2680      2682      2677      2678      2680      2692
      2678      2677      2675      2683      2678      2680      2692      2693
      2678      2680      2692      2694      2678      2680      2692      2695
      2679      2678      2680      2681      2679      2678      2680      2682
      2679      2678      2680      2692      2680      2692      2695      2696
      2680      2692      2695      2697      2680      2692      2695      2698
      2681      2680      2692      2693      2681      2680      2692      2694
      2681      2680      2692      2695      2682      2680      2692      2693
      2682      2680      2692      2694      2682      2680      2692      2695
      2683      2686      2687      2688      2683      2686      2687      2689
      2684      2683      2686      2687      2685      2683      2686      2687
      2686      2687      2689      2690      2686      2687      2689      2691
      2686      2687      2689      2739      2687      2689      2739      2740
      2687      2689      2739      2741      2687      2689      2739      2742
      2688      2687      2689      2690      2688      2687      2689      2691
      2688      2687      2689      2739      2689      2739      2742      2743
      2689      2739      2742      2744      2689      2739      2742      2745
      2690      2689      2739      2740      2690      2689      2739      2741
      2690      2689      2739      2742      2691      2689      2739      2740
      2691      2689      2739      2741      2691      2689      2739      2742
      2692      2695      2698      2699      2692      2695      2698      2700
      2692      2695      2698      2701      2693      2692      2695      2696
      2693      2692      2695      2697      2693      2692      2695      2698
      2694      2692      2695      2696      2694      2692      2695      2697
      2694      2692      2695      2698      2695      2698      2701      2702
      2695      2698      2701      2703      2695      2698      2701      2704
      2696      2695      2698      2699      2696      2695      2698      2700
      2696      2695      2698      2701      2697      2695      2698      2699
      2697      2695      2698      2700      2697      2695      2698      2701
      2698      2701      2704      2705      2698      2701      2704      2706
      2698      2701      2704      2707      2699      2698      2701      2702
      2699      2698      2701      2703      2699      2698      2701      2704
      2700      2698      2701      2702      2700      2698      2701      2703
      2700      2698      2701      2704      2701      2704      2707      2708
      2701      2704      2707      2709      2701      2704      2707      2710
      2702      2701      2704      2705      2702      2701      2704      2706
      2702      2701      2704      2707      2703      2701      2704      2705
      2703      2701      2704      2706      2703      2701      2704      2707
      2704      2707      2710      2711      2704      2707      2710      2712
      2705      2704      2707      2708      2705      2704      2707      2709
      2705      2704      2707      2710      2706      2704      2707      2708
      2706      2704      2707      2709      2706      2704      2707      2710
      2707      2710      2712      2713      2707      2710      2712      2714
      2708      2707      2710      2711      2708      2707      2710      2712
      2709      2707      2710      2711      2709      2707      2710      2712
      2710      2712      2714      2715      2710      2712      2714      2716
      2710      2712      2714      2717      2711      2710      2712      2713
      2711      2710      2712      2714      2712      2714      2717      2718
      2712      2714      2717      2719      2712      2714      2717      2720
      2713      2712      2714      2715      2713      2712      2714      2716
      2713      2712      2714      2717      2714      2717      2720      2721
      2714      2717      2720      2722      2714      2717      2720      2723
      2715      2714      2717      2718      2715      2714      2717      2719
      2715      2714      2717      2720      2716      2714      2717      2718
      2716      2714      2717      2719      2716      2714      2717      2720
      2717      2720      2723      2724      2717      2720      2723      2725
      2717      2720      2723      2726      2718      2717      2720      2721
      2718      2717      2720      2722      2718      2717      2720      2723
      2719      2717      2720      2721      2719      2717      2720      2722
      2719      2717      2720      2723      2720      2723      2726      2727
      2720      2723      2726      2728      2720      2723      2726      2729
      2721      2720      2723      2724      2721      2720      2723      2725
      2721      2720      2723      2726      2722      2720      2723      2724
      2722      2720      2723      2725      2722      2720      2723      2726
      2723      2726      2729      2730      2723      2726      2729      2731
      2723      2726      2729      2732      2724      2723      2726      2727
      2724      2723      2726      2728      2724      2723      2726      2729
      2725      2723      2726      2727      2725      2723      2726      2728
      2725      2723      2726      2729      2726      2729      2732      2733
      2726      2729      2732      2734      2726      2729      2732      2735
      2727      2726      2729      2730      2727      2726      2729      2731
      2727      2726      2729      2732      2728      2726      2729      2730
      2728      2726      2729      2731      2728      2726      2729      2732
      2729      2732      2735      2736      2729      2732      2735      2737
      2729      2732      2735      2738      2730      2729      2732      2733
      2730      2729      2732      2734      2730      2729      2732      2735
      2731      2729      2732      2733      2731      2729      2732      2734
      2731      2729      2732      2735      2733      2732      2735      2736
      2733      2732      2735      2737      2733      2732      2735      2738
      2734      2732      2735      2736      2734      2732      2735      2737
      2734      2732      2735      2738      2739      2742      2745      2746
      2739      2742      2745      2747      2739      2742      2745      2748
      2740      2739      2742      2743      2740      2739      2742      2744
      2740      2739      2742      2745      2741      2739      2742      2743
      2741      2739      2742      2744      2741      2739      2742      2745
      2742      2745      2748      2749      2742      2745      2748      2750
      2742      2745      2748      2751      2743      2742      2745      2746
      2743      2742      2745      2747      2743      2742      2745      2748
      2744      2742      2745      2746      2744      2742      2745      2747
      2744      2742      2745      2748      2745      2748      2751      2752
      2745      2748      2751      2753      2745      2748      2751      2754
      2746      2745      2748      2749      2746      2745      2748      2750
      2746      2745      2748      2751      2747      2745      2748      2749
      2747      2745      2748      2750      2747      2745      2748      2751
      2748      2751      2754      2755      2748      2751      2754      2756
      2748      2751      2754      2757      2749      2748      2751      2752
      2749      2748      2751      2753      2749      2748      2751      2754
      2750      2748      2751      2752      2750      2748      2751      2753
      2750      2748      2751      2754      2751      2754      2757      2758
      2751      2754      2757      2759      2751      2754      2757      2760
      2752      2751      2754      2755      2752      2751      2754      2756
      2752      2751      2754      2757      2753      2751      2754      2755
      2753      2751      2754      2756      2753      2751      2754      2757
      2754      2757      2760      2761      2754      2757      2760      2762
      2754      2757      2760      2763      2755      2754      2757      2758
      2755      2754      2757      2759      2755      2754      2757      2760
      2756      2754      2757      2758      2756      2754      2757      2759
      2756      2754      2757      2760      2757      2760      2763      2764
      2757      2760      2763      2765      2757      2760      2763      2766
      2758      2757      2760      2761      2758      2757      2760      2762
      2758      2757      2760      2763      2759      2757      2760      2761
      2759      2757      2760      2762      2759      2757      2760      2763
      2760      2763      2766      2767      2760      2763      2766      2768
      2760      2763      2766      2769      2761      2760      2763      2764
      2761      2760      2763      2765      2761      2760      2763      2766
      2762      2760      2763      2764      2762      2760      2763      2765
      2762      2760      2763      2766      2763      2766      2769      2770
      2763      2766      2769      2771      2763      2766      2769      2772
      2764      2763      2766      2767      2764      2763      2766      2768
      2764      2763      2766      2769      2765      2763      2766      2767
      2765      2763      2766      2768      2765      2763      2766      2769
      2766      2769      2772      2773      2766      2769      2772      2774
      2766      2769      2772      2775      2767      2766      2769      2770
      2767      2766      2769      2771      2767      2766      2769      2772
      2768      2766      2769      2770      2768      2766      2769      2771
      2768      2766      2769      2772      2769      2772      2775      2776
      2769      2772      2775      2777      2769      2772      2775      2778
      2770      2769      2772      2773      2770      2769      2772      2774
      2770      2769      2772      2775      2771      2769      2772      2773
      2771      2769      2772      2774      2771      2769      2772      2775
      2772      2775      2778      2779      2772      2775      2778      2780
      2772      2775      2778      2781      2773      2772      2775      2776
      2773      2772      2775      2777      2773      2772      2775      2778
      2774      2772      2775      2776      2774      2772      2775      2777
      2774      2772      2775      2778      2776      2775      2778      2779
      2776      2775      2778      2780      2776      2775      2778      2781
      2777      2775      2778      2779      2777      2775      2778      2780
      2777      2775      2778      2781      2782      2783      2798      2799
      2782      2783      2798      2800      2782      2783      2798      2804
      2783      2782      2786      2787      2783      2782      2786      2788
      2783      2782      2786      2789      2783      2782      2790      2791
      2783      2782      2790      2792      2783      2782      2790      2793
      2783      2782      2794      2795      2783      2782      2794      2796
      2783      2782      2794      2797      2783      2798      2804      2801
      2784      2783      2782      2786      2784      2783      2782      2790
      2784      2783      2782      2794      2784      2783      2798      2799
      2784      2783      2798      2800      2784      2783      2798      2804
      2785      2783      2782      2786      2785      2783      2782      2790
      2785      2783      2782      2794      2785      2783      2798      2799
      2785      2783      2798      2800      2785      2783      2798      2804
      2786      2782      2783      2798      2786      2782      2790      2791
      2786      2782      2790      2792      2786      2782      2790      2793
      2786      2782      2794      2795      2786      2782      2794      2796
      2786      2782      2794      2797      2787      2786      2782      2790
      2787      2786      2782      2794      2788      2786      2782      2790
      2788      2786      2782      2794      2789      2786      2782      2790
      2789      2786      2782      2794      2790      2782      2783      2798
      2790      2782      2794      2795      2790      2782      2794      2796
      2790      2782      2794      2797      2791      2790      2782      2794
      2792      2790      2782      2794      2793      2790      2782      2794
      2794      2782      2783      2798      2798      2804      2801      2802
      2798      2804      2801      2803      2798      2804      2801      2805
      2799      2798      2804      2801      2800      2798      2804      2801
      2801      2805      2806      2807      2801      2805      2806      2808
      2801      2805      2806      2809      2802      2801      2805      2806
      2803      2801      2805      2806      2804      2801      2805      2806
      2805      2806      2809      2810      2805      2806      2809      2811
      2805      2806      2809      2817      2806      2809      2811      2812
      2806      2809      2817      2818      2806      2809      2817      2819
      2806      2809      2817      2820      2807      2806      2809      2810
      2807      2806      2809      2811      2807      2806      2809      2817
      2808      2806      2809      2810      2808      2806      2809      2811
      2808      2806      2809      2817      2809      2811      2812      2813
      2809      2811      2812      2814      2809      2817      2820      2821
      2810      2809      2811      2812      2810      2809      2817      2818
      2810      2809      2817      2819      2810      2809      2817      2820
      2811      2809      2817      2818      2811      2809      2817      2819
      2811      2809      2817      2820      2811      2812      2814      2815
      2811      2812      2814      2816      2811      2812      2814      2826
      2812      2811      2809      2817      2812      2814      2826      2827
      2812      2814      2826      2828      2812      2814      2826      2829
      2813      2812      2814      2815      2813      2812      2814      2816
      2813      2812      2814      2826      2814      2826      2829      2830
      2814      2826      2829      2831      2814      2826      2829      2832
      2815      2814      2826      2827      2815      2814      2826      2828
      2815      2814      2826      2829      2816      2814      2826      2827
      2816      2814      2826      2828      2816      2814      2826      2829
      2817      2820      2821      2822      2817      2820      2821      2823
      2818      2817      2820      2821      2819      2817      2820      2821
      2820      2821      2823      2824      2820      2821      2823      2825
      2820      2821      2823      2873      2821      2823      2873      2874
      2821      2823      2873      2875      2821      2823      2873      2876
      2822      2821      2823      2824      2822      2821      2823      2825
      2822      2821      2823      2873      2823      2873      2876      2877
      2823      2873      2876      2878      2823      2873      2876      2879
      2824      2823      2873      2874      2824      2823      2873      2875
      2824      2823      2873      2876      2825      2823      2873      2874
      2825      2823      2873      2875      2825      2823      2873      2876
      2826      2829      2832      2833      2826      2829      2832      2834
      2826      2829      2832      2835      2827      2826      2829      2830
      2827      2826      2829      2831      2827      2826      2829      2832
      2828      2826      2829      2830      2828      2826      2829      2831
      2828      2826      2829      2832      2829      2832      2835      2836
      2829      2832      2835      2837      2829      2832      2835      2838
      2830      2829      2832      2833      2830      2829      2832      2834
      2830      2829      2832      2835      2831      2829      2832      2833
      2831      2829      2832      2834      2831      2829      2832      2835
      2832      2835      2838      2839      2832      2835      2838      2840
      2832      2835      2838      2841      2833      2832      2835      2836
      2833      2832      2835      2837      2833      2832      2835      2838
      2834      2832      2835      2836      2834      2832      2835      2837
      2834      2832      2835      2838      2835      2838      2841      2842
      2835      2838      2841      2843      2835      2838      2841      2844
      2836      2835      2838      2839      2836      2835      2838      2840
      2836      2835      2838      2841      2837      2835      2838      2839
      2837      2835      2838      2840      2837      2835      2838      2841
      2838      2841      2844      2845      2838      2841      2844      2846
      2839      2838      2841      2842      2839      2838      2841      2843
      2839      2838      2841      2844      2840      2838      2841      2842
      2840      2838      2841      2843      2840      2838      2841      2844
      2841      2844      2846      2847      2841      2844      2846      2848
      2842      2841      2844      2845      2842      2841      2844      2846
      2843      2841      2844      2845      2843      2841      2844      2846
      2844      2846      2848      2849      2844      2846      2848      2850
      2844      2846      2848      2851      2845      2844      2846      2847
      2845      2844      2846      2848      2846      2848      2851      2852
      2846      2848      2851      2853      2846      2848      2851      2854
      2847      2846      2848      2849      2847      2846      2848      2850
      2847      2846      2848      2851      2848      2851      2854      2855
      2848      2851      2854      2856      2848      2851      2854      2857
      2849      2848      2851      2852      2849      2848      2851      2853
      2849      2848      2851      2854      2850      2848      2851      2852
      2850      2848      2851      2853      2850      2848      2851      2854
      2851      2854      2857      2858      2851      2854      2857      2859
      2851      2854      2857      2860      2852      2851      2854      2855
      2852      2851      2854      2856      2852      2851      2854      2857
      2853      2851      2854      2855      2853      2851      2854      2856
      2853      2851      2854      2857      2854      2857      2860      2861
      2854      2857      2860      2862      2854      2857      2860      2863
      2855      2854      2857      2858      2855      2854      2857      2859
      2855      2854      2857      2860      2856      2854      2857      2858
      2856      2854      2857      2859      2856      2854      2857      2860
      2857      2860      2863      2864      2857      2860      2863      2865
      2857      2860      2863      2866      2858      2857      2860      2861
      2858      2857      2860      2862      2858      2857      2860      2863
      2859      2857      2860      2861      2859      2857      2860      2862
      2859      2857      2860      2863      2860      2863      2866      2867
      2860      2863      2866      2868      2860      2863      2866      2869
      2861      2860      2863      2864      2861      2860      2863      2865
      2861      2860      2863      2866      2862      2860      2863      2864
      2862      2860      2863      2865      2862      2860      2863      2866
      2863      2866      2869      2870      2863      2866      2869      2871
      2863      2866      2869      2872      2864      2863      2866      2867
      2864      2863      2866      2868      2864      2863      2866      2869
      2865      2863      2866      2867      2865      2863      2866      2868
      2865      2863      2866      2869      2867      2866      2869      2870
      2867      2866      2869      2871      2867      2866      2869      2872
      2868      2866      2869      2870      2868      2866      2869      2871
      2868      2866      2869      2872      2873      2876      2879      2880
      2873      2876      2879      2881      2873      2876      2879      2882
      2874      2873      2876      2877      2874      2873      2876      2878
      2874      2873      2876      2879      2875      2873      2876      2877
      2875      2873      2876      2878      2875      2873      2876      2879
      2876      2879      2882      2883      2876      2879      2882      2884
      2876      2879      2882      2885      2877      2876      2879      2880
      2877      2876      2879      2881      2877      2876      2879      2882
      2878      2876      2879      2880      2878      2876      2879      2881
      2878      2876      2879      2882      2879      2882      2885      2886
      2879      2882      2885      2887      2879      2882      2885      2888
      2880      2879      2882      2883      2880      2879      2882      2884
      2880      2879      2882      2885      2881      2879      2882      2883
      2881      2879      2882      2884      2881      2879      2882      2885
      2882      2885      2888      2889      2882      2885      2888      2890
      2882      2885      2888      2891      2883      2882      2885      2886
      2883      2882      2885      2887      2883      2882      2885      2888
      2884      2882      2885      2886      2884      2882      2885      2887
      2884      2882      2885      2888      2885      2888      2891      2892
      2885      2888      2891      2893      2885      2888      2891      2894
      2886      2885      2888      2889      2886      2885      2888      2890
      2886      2885      2888      2891      2887      2885      2888      2889
      2887      2885      2888      2890      2887      2885      2888      2891
      2888      2891      2894      2895      2888      2891      2894      2896
      2888      2891      2894      2897      2889      2888      2891      2892
      2889      2888      2891      2893      2889      2888      2891      2894
      2890      2888      2891      2892      2890      2888      2891      2893
      2890      2888      2891      2894      2891      2894      2897      2898
      2891      2894      2897      2899      2891      2894      2897      2900
      2892      2891      2894      2895      2892      2891      2894      2896
      2892      2891      2894      2897      2893      2891      2894      2895
      2893      2891      2894      2896      2893      2891      2894      2897
      2894      2897      2900      2901      2894      2897      2900      2902
      2894      2897      2900      2903      2895      2894      2897      2898
      2895      2894      2897      2899      2895      2894      2897      2900
      2896      2894      2897      2898      2896      2894      2897      2899
      2896      2894      2897      2900      2897      2900      2903      2904
      2897      2900      2903      2905      2897      2900      2903      2906
      2898      2897      2900      2901      2898      2897      2900      2902
      2898      2897      2900      2903      2899      2897      2900      2901
      2899      2897      2900      2902      2899      2897      2900      2903
      2900      2903      2906      2907      2900      2903      2906      2908
      2900      2903      2906      2909      2901      2900      2903      2904
      2901      2900      2903      2905      2901      2900      2903      2906
      2902      2900      2903      2904      2902      2900      2903      2905
      2902      2900      2903      2906      2903      2906      2909      2910
      2903      2906      2909      2911      2903      2906      2909      2912
      2904      2903      2906      2907      2904      2903      2906      2908
      2904      2903      2906      2909      2905      2903      2906      2907
      2905      2903      2906      2908      2905      2903      2906      2909
      2906      2909      2912      2913      2906      2909      2912      2914
      2906      2909      2912      2915      2907      2906      2909      2910
      2907      2906      2909      2911      2907      2906      2909      2912
      2908      2906      2909      2910      2908      2906      2909      2911
      2908      2906      2909      2912      2910      2909      2912      2913
      2910      2909      2912      2914      2910      2909      2912      2915
      2911      2909      2912      2913      2911      2909      2912      2914
      2911      2909      2912      2915      2916      2917      2932      2933
      2916      2917      2932      2934      2916      2917      2932      2938
      2917      2916      2920      2921      2917      2916      2920      2922
      2917      2916      2920      2923      2917      2916      2924      2925
      2917      2916      2924      2926      2917      2916      2924      2927
      2917      2916      2928      2929      2917      2916      2928      2930
      2917      2916      2928      2931      2917      2932      2938      2935
      2918      2917      2916      2920      2918      2917      2916      2924
      2918      2917      2916      2928      2918      2917      2932      2933
      2918      2917      2932      2934      2918      2917      2932      2938
      2919      2917      2916      2920      2919      2917      2916      2924
      2919      2917      2916      2928      2919      2917      2932      2933
      2919      2917      2932      2934      2919      2917      2932      2938
      2920      2916      2917      2932      2920      2916      2924      2925
      2920      2916      2924      2926      2920      2916      2924      2927
      2920      2916      2928      2929      2920      2916      2928      2930
      2920      2916      2928      2931      2921      2920      2916      2924
      2921      2920      2916      2928      2922      2920      2916      2924
      2922      2920      2916      2928      2923      2920      2916      2924
      2923      2920      2916      2928      2924      2916      2917      2932
      2924      2916      2928      2929      2924      2916      2928      2930
      2924      2916      2928      2931      2925      2924      2916      2928
      2926      2924      2916      2928      2927      2924      2916      2928
      2928      2916      2917      2932      2932      2938      2935      2936
      2932      2938      2935      2937      2932      2938      2935      2939
      2933      2932      2938      2935      2934      2932      2938      2935
      2935      2939      2940      2941      2935      2939      2940      2942
      2935      2939      2940      2943      2936      2935      2939      2940
      2937      2935      2939      2940      2938      2935      2939      2940
      2939      2940      2943      2944      2939      2940      2943      2945
      2939      2940      2943      2951      2940      2943      2945      2946
      2940      2943      2951      2952      2940      2943      2951      2953
      2940      2943      2951      2954      2941      2940      2943      2944
      2941      2940      2943      2945      2941      2940      2943      2951
      2942      2940      2943      2944      2942      2940      2943      2945
      2942      2940      2943      2951      2943      2945      2946      2947
      2943      2945      2946      2948      2943      2951      2954      2955
      2944      2943      2945      2946      2944      2943      2951      2952
      2944      2943      2951      2953      2944      2943      2951      2954
      2945      2943      2951      2952      2945      2943      2951      2953
      2945      2943      2951      2954      2945      2946      2948      2949
      2945      2946      2948      2950      2945      2946      2948      2960
      2946      2945      2943      2951      2946      2948      2960      2961
      2946      2948      2960      2962      2946      2948      2960      2963
      2947      2946      2948      2949      2947      2946      2948      2950
      2947      2946      2948      2960      2948      2960      2963      2964
      2948      2960      2963      2965      2948      2960      2963      2966
      2949      2948      2960      2961      2949      2948      2960      2962
      2949      2948      2960      2963      2950      2948      2960      2961
      2950      2948      2960      2962      2950      2948      2960      2963
      2951      2954      2955      2956      2951      2954      2955      2957
      2952      2951      2954      2955      2953      2951      2954      2955
      2954      2955      2957      2958      2954      2955      2957      2959
      2954      2955      2957      3007      2955      2957      3007      3008
      2955      2957      3007      3009      2955      2957      3007      3010
      2956      2955      2957      2958      2956      2955      2957      2959
      2956      2955      2957      3007      2957      3007      3010      3011
      2957      3007      3010      3012      2957      3007      3010      3013
      2958      2957      3007      3008      2958      2957      3007      3009
      2958      2957      3007      3010      2959      2957      3007      3008
      2959      2957      3007      3009      2959      2957      3007      3010
      2960      2963      2966      2967      2960      2963      2966      2968
      2960      2963      2966      2969      2961      2960      2963      2964
      2961      2960      2963      2965      2961      2960      2963      2966
      2962      2960      2963      2964      2962      2960      2963      2965
      2962      2960      2963      2966      2963      2966      2969      2970
      2963      2966      2969      2971      2963      2966      2969      2972
      2964      2963      2966      2967      2964      2963      2966      2968
      2964      2963      2966      2969      2965      2963      2966      2967
      2965      2963      2966      2968      2965      2963      2966      2969
      2966      2969      2972      2973      2966      2969      2972      2974
      2966      2969      2972      2975      2967      2966      2969      2970
      2967      2966      2969      2971      2967      2966      2969      2972
      2968      2966      2969      2970      2968      2966      2969      2971
      2968      2966      2969      2972      2969      2972      2975      2976
      2969      2972      2975      2977      2969      2972      2975      2978
      2970      2969      2972      2973      2970      2969      2972      2974
      2970      2969      2972      2975      2971      2969      2972      2973
      2971      2969      2972      2974      2971      2969      2972      2975
      2972      2975      2978      2979      2972      2975      2978      2980
      2973      2972      2975      2976      2973      2972      2975      2977
      2973      2972      2975      2978      2974      2972      2975      2976
      2974      2972      2975      2977      2974      2972      2975      2978
      2975      2978      2980      2981      2975      2978      2980      2982
      2976      2975      2978      2979      2976      2975      2978      2980
      2977      2975      2978      2979      2977      2975      2978      2980
      2978      2980      2982      2983      2978      2980      2982      2984
      2978      2980      2982      2985      2979      2978      2980      2981
      2979      2978      2980      2982      2980      2982      2985      2986
      2980      2982      2985      2987      2980      2982      2985      2988
      2981      2980      2982      2983      2981      2980      2982      2984
      2981      2980      2982      2985      2982      2985      2988      2989
      2982      2985      2988      2990      2982      2985      2988      2991
      2983      2982      2985      2986      2983      2982      2985      2987
      2983      2982      2985      2988      2984      2982      2985      2986
      2984      2982      2985      2987      2984      2982      2985      2988
      2985      2988      2991      2992      2985      2988      2991      2993
      2985      2988      2991      2994      2986      2985      2988      2989
      2986      2985      2988      2990      2986      2985      2988      2991
      2987      2985      2988      2989      2987      2985      2988      2990
      2987      2985      2988      2991      2988      2991      2994      2995
      2988      2991      2994      2996      2988      2991      2994      2997
      2989      2988      2991      2992      2989      2988      2991      2993
      2989      2988      2991      2994      2990      2988      2991      2992
      2990      2988      2991      2993      2990      2988      2991      2994
      2991      2994      2997      2998      2991      2994      2997      2999
      2991      2994      2997      3000      2992      2991      2994      2995
      2992      2991      2994      2996      2992      2991      2994      2997
      2993      2991      2994      2995      2993      2991      2994      2996
      2993      2991      2994      2997      2994      2997      3000      3001
      2994      2997      3000      3002      2994      2997      3000      3003
      2995      2994      2997      2998      2995      2994      2997      2999
      2995      2994      2997      3000      2996      2994      2997      2998
      2996      2994      2997      2999      2996      2994      2997      3000
      2997      3000      3003      3004      2997      3000      3003      3005
      2997      3000      3003      3006      2998      2997      3000      3001
      2998      2997      3000      3002      2998      2997      3000      3003
      2999      2997      3000      3001      2999      2997      3000      3002
      2999      2997      3000      3003      3001      3000      3003      3004
      3001      3000      3003      3005      3001      3000      3003      3006
      3002      3000      3003      3004      3002      3000      3003      3005
      3002      3000      3003      3006      3007      3010      3013      3014
      3007      3010      3013      3015      3007      3010      3013      3016
      3008      3007      3010      3011      3008      3007      3010      3012
      3008      3007      3010      3013      3009      3007      3010      3011
      3009      3007      3010      3012      3009      3007      3010      3013
      3010      3013      3016      3017      3010      3013      3016      3018
      3010      3013      3016      3019      3011      3010      3013      3014
      3011      3010      3013      3015      3011      3010      3013      3016
      3012      3010      3013      3014      3012      3010      3013      3015
      3012      3010      3013      3016      3013      3016      3019      3020
      3013      3016      3019      3021      3013      3016      3019      3022
      3014      3013      3016      3017      3014      3013      3016      3018
      3014      3013      3016      3019      3015      3013      3016      3017
      3015      3013      3016      3018      3015      3013      3016      3019
      3016      3019      3022      3023      3016      3019      3022      3024
      3016      3019      3022      3025      3017      3016      3019      3020
      3017      3016      3019      3021      3017      3016      3019      3022
      3018      3016      3019      3020      3018      3016      3019      3021
      3018      3016      3019      3022      3019      3022      3025      3026
      3019      3022      3025      3027      3019      3022      3025      3028
      3020      3019      3022      3023      3020      3019      3022      3024
      3020      3019      3022      3025      3021      3019      3022      3023
      3021      3019      3022      3024      3021      3019      3022      3025
      3022      3025      3028      3029      3022      3025      3028      3030
      3022      3025      3028      3031      3023      3022      3025      3026
      3023      3022      3025      3027      3023      3022      3025      3028
      3024      3022      3025      3026      3024      3022      3025      3027
      3024      3022      3025      3028      3025      3028      3031      3032
      3025      3028      3031      3033      3025      3028      3031      3034
      3026      3025      3028      3029      3026      3025      3028      3030
      3026      3025      3028      3031      3027      3025      3028      3029
      3027      3025      3028      3030      3027      3025      3028      3031
      3028      3031      3034      3035      3028      3031      3034      3036
      3028      3031      3034      3037      3029      3028      3031      3032
      3029      3028      3031      3033      3029      3028      3031      3034
      3030      3028      3031      3032      3030      3028      3031      3033
      3030      3028      3031      3034      3031      3034      3037      3038
      3031      3034      3037      3039      3031      3034      3037      3040
      3032      3031      3034      3035      3032      3031      3034      3036
      3032      3031      3034      3037      3033      3031      3034      3035
      3033      3031      3034      3036      3033      3031      3034      3037
      3034      3037      3040      3041      3034      3037      3040      3042
      3034      3037      3040      3043      3035      3034      3037      3038
      3035      3034      3037      3039      3035      3034      3037      3040
      3036      3034      3037      3038      3036      3034      3037      3039
      3036      3034      3037      3040      3037      3040      3043      3044
      3037      3040      3043      3045      3037      3040      3043      3046
      3038      3037      3040      3041      3038      3037      3040      3042
      3038      3037      3040      3043      3039      3037      3040      3041
      3039      3037      3040      3042      3039      3037      3040      3043
      3040      3043      3046      3047      3040      3043      3046      3048
      3040      3043      3046      3049      3041      3040      3043      3044
      3041      3040      3043      3045      3041      3040      3043      3046
      3042      3040      3043      3044      3042      3040      3043      3045
      3042      3040      3043      3046      3044      3043      3046      3047
      3044      3043      3046      3048      3044      3043      3046      3049
      3045      3043      3046      3047      3045      3043      3046      3048
      3045      3043      3046      3049      3050      3051      3066      3067
      3050      3051      3066      3068      3050      3051      3066      3072
      3051      3050      3054      3055      3051      3050      3054      3056
      3051      3050      3054      3057      3051      3050      3058      3059
      3051      3050      3058      3060      3051      3050      3058      3061
      3051      3050      3062      3063      3051      3050      3062      3064
      3051      3050      3062      3065      3051      3066      3072      3069
      3052      3051      3050      3054      3052      3051      3050      3058
      3052      3051      3050      3062      3052      3051      3066      3067
      3052      3051      3066      3068      3052      3051      3066      3072
      3053      3051      3050      3054      3053      3051      3050      3058
      3053      3051      3050      3062      3053      3051      3066      3067
      3053      3051      3066      3068      3053      3051      3066      3072
      3054      3050      3051      3066      3054      3050      3058      3059
      3054      3050      3058      3060      3054      3050      3058      3061
      3054      3050      3062      3063      3054      3050      3062      3064
      3054      3050      3062      3065      3055      3054      3050      3058
      3055      3054      3050      3062      3056      3054      3050      3058
      3056      3054      3050      3062      3057      3054      3050      3058
      3057      3054      3050      3062      3058      3050      3051      3066
      3058      3050      3062      3063      3058      3050      3062      3064
      3058      3050      3062      3065      3059      3058      3050      3062
      3060      3058      3050      3062      3061      3058      3050      3062
      3062      3050      3051      3066      3066      3072      3069      3070
      3066      3072      3069      3071      3066      3072      3069      3073
      3067      3066      3072      3069      3068      3066      3072      3069
      3069      3073      3074      3075      3069      3073      3074      3076
      3069      3073      3074      3077      3070      3069      3073      3074
      3071      3069      3073      3074      3072      3069      3073      3074
      3073      3074      3077      3078      3073      3074      3077      3079
      3073      3074      3077      3085      3074      3077      3079      3080
      3074      3077      3085      3086      3074      3077      3085      3087
      3074      3077      3085      3088      3075      3074      3077      3078
      3075      3074      3077      3079      3075      3074      3077      3085
      3076      3074      3077      3078      3076      3074      3077      3079
      3076      3074      3077      3085      3077      3079      3080      3081
      3077      3079      3080      3082      3077      3085      3088      3089
      3078      3077      3079      3080      3078      3077      3085      3086
      3078      3077      3085      3087      3078      3077      3085      3088
      3079      3077      3085      3086      3079      3077      3085      3087
      3079      3077      3085      3088      3079      3080      3082      3083
      3079      3080      3082      3084      3079      3080      3082      3094
      3080      3079      3077      3085      3080      3082      3094      3095
      3080      3082      3094      3096      3080      3082      3094      3097
      3081      3080      3082      3083      3081      3080      3082      3084
      3081      3080      3082      3094      3082      3094      3097      3098
      3082      3094      3097      3099      3082      3094      3097      3100
      3083      3082      3094      3095      3083      3082      3094      3096
      3083      3082      3094      3097      3084      3082      3094      3095
      3084      3082      3094      3096      3084      3082      3094      3097
      3085      3088      3089      3090      3085      3088      3089      3091
      3086      3085      3088      3089      3087      3085      3088      3089
      3088      3089      3091      3092      3088      3089      3091      3093
      3088      3089      3091      3141      3089      3091      3141      3142
      3089      3091      3141      3143      3089      3091      3141      3144
      3090      3089      3091      3092      3090      3089      3091      3093
      3090      3089      3091      3141      3091      3141      3144      3145
      3091      3141      3144      3146      3091      3141      3144      3147
      3092      3091      3141      3142      3092      3091      3141      3143
      3092      3091      3141      3144      3093      3091      3141      3142
      3093      3091      3141      3143      3093      3091      3141      3144
      3094      3097      3100      3101      3094      3097      3100      3102
      3094      3097      3100      3103      3095      3094      3097      3098
      3095      3094      3097      3099      3095      3094      3097      3100
      3096      3094      3097      3098      3096      3094      3097      3099
      3096      3094      3097      3100      3097      3100      3103      3104
      3097      3100      3103      3105      3097      3100      3103      3106
      3098      3097      3100      3101      3098      3097      3100      3102
      3098      3097      3100      3103      3099      3097      3100      3101
      3099      3097      3100      3102      3099      3097      3100      3103
      3100      3103      3106      3107      3100      3103      3106      3108
      3100      3103      3106      3109      3101      3100      3103      3104
      3101      3100      3103      3105      3101      3100      3103      3106
      3102      3100      3103      3104      3102      3100      3103      3105
      3102      3100      3103      3106      3103      3106      3109      3110
      3103      3106      3109      3111      3103      3106      3109      3112
      3104      3103      3106      3107      3104      3103      3106      3108
      3104      3103      3106      3109      3105      3103      3106      3107
      3105      3103      3106      3108      3105      3103      3106      3109
      3106      3109      3112      3113      3106      3109      3112      3114
      3107      3106      3109      3110      3107      3106      3109      3111
      3107      3106      3109      3112      3108      3106      3109      3110
      3108      3106      3109      3111      3108      3106      3109      3112
      3109      3112      3114      3115      3109      3112      3114      3116
      3110      3109      3112      3113      3110      3109      3112      3114
      3111      3109      3112      3113      3111      3109      3112      3114
      3112      3114      3116      3117      3112      3114      3116      3118
      3112      3114      3116      3119      3113      3112      3114      3115
      3113      3112      3114      3116      3114      3116      3119      3120
      3114      3116      3119      3121      3114      3116      3119      3122
      3115      3114      3116      3117      3115      3114      3116      3118
      3115      3114      3116      3119      3116      3119      3122      3123
      3116      3119      3122      3124      3116      3119      3122      3125
      3117      3116      3119      3120      3117      3116      3119      3121
      3117      3116      3119      3122      3118      3116      3119      3120
      3118      3116      3119      3121      3118      3116      3119      3122
      3119      3122      3125      3126      3119      3122      3125      3127
      3119      3122      3125      3128      3120      3119      3122      3123
      3120      3119      3122      3124      3120      3119      3122      3125
      3121      3119      3122      3123      3121      3119      3122      3124
      3121      3119      3122      3125      3122      3125      3128      3129
      3122      3125      3128      3130      3122      3125      3128      3131
      3123      3122      3125      3126      3123      3122      3125      3127
      3123      3122      3125      3128      3124      3122      3125      3126
      3124      3122      3125      3127      3124      3122      3125      3128
      3125      3128      3131      3132      3125      3128      3131      3133
      3125      3128      3131      3134      3126      3125      3128      3129
      3126      3125      3128      3130      3126      3125      3128      3131
      3127      3125      3128      3129      3127      3125      3128      3130
      3127      3125      3128      3131      3128      3131      3134      3135
      3128      3131      3134      3136      3128      3131      3134      3137
      3129      3128      3131      3132      3129      3128      3131      3133
      3129      3128      3131      3134      3130      3128      3131      3132
      3130      3128      3131      3133      3130      3128      3131      3134
      3131      3134      3137      3138      3131      3134      3137      3139
      3131      3134      3137      3140      3132      3131      3134      3135
      3132      3131      3134      3136      3132      3131      3134      3137
      3133      3131      3134      3135      3133      3131      3134      3136
      3133      3131      3134      3137      3135      3134      3137      3138
      3135      3134      3137      3139      3135      3134      3137      3140
      3136      3134      3137      3138      3136      3134      3137      3139
      3136      3134      3137      3140      3141      3144      3147      3148
      3141      3144      3147      3149      3141      3144      3147      3150
      3142      3141      3144      3145      3142      3141      3144      3146
      3142      3141      3144      3147      3143      3141      3144      3145
      3143      3141      3144      3146      3143      3141      3144      3147
      3144      3147      3150      3151      3144      3147      3150      3152
      3144      3147      3150      3153      3145      3144      3147      3148
      3145      3144      3147      3149      3145      3144      3147      3150
      3146      3144      3147      3148      3146      3144      3147      3149
      3146      3144      3147      3150      3147      3150      3153      3154
      3147      3150      3153      3155      3147      3150      3153      3156
      3148      3147      3150      3151      3148      3147      3150      3152
      3148      3147      3150      3153      3149      3147      3150      3151
      3149      3147      3150      3152      3149      3147      3150      3153
      3150      3153      3156      3157      3150      3153      3156      3158
      3150      3153      3156      3159      3151      3150      3153      3154
      3151      3150      3153      3155      3151      3150      3153      3156
      3152      3150      3153      3154      3152      3150      3153      3155
      3152      3150      3153      3156      3153      3156      3159      3160
      3153      3156      3159      3161      3153      3156      3159      3162
      3154      3153      3156      3157      3154      3153      3156      3158
      3154      3153      3156      3159      3155      3153      3156      3157
      3155      3153      3156      3158      3155      3153      3156      3159
      3156      3159      3162      3163      3156      3159      3162      3164
      3156      3159      3162      3165      3157      3156      3159      3160
      3157      3156      3159      3161      3157      3156      3159      3162
      3158      3156      3159      3160      3158      3156      3159      3161
      3158      3156      3159      3162      3159      3162      3165      3166
      3159      3162      3165      3167      3159      3162      3165      3168
      3160      3159      3162      3163      3160      3159      3162      3164
      3160      3159      3162      3165      3161      3159      3162      3163
      3161      3159      3162      3164      3161      3159      3162      3165
      3162      3165      3168      3169      3162      3165      3168      3170
      3162      3165      3168      3171      3163      3162      3165      3166
      3163      3162      3165      3167      3163      3162      3165      3168
      3164      3162      3165      3166      3164      3162      3165      3167
      3164      3162      3165      3168      3165      3168      3171      3172
      3165      3168      3171      3173      3165      3168      3171      3174
      3166      3165      3168      3169      3166      3165      3168      3170
      3166      3165      3168      3171      3167      3165      3168      3169
      3167      3165      3168      3170      3167      3165      3168      3171
      3168      3171      3174      3175      3168      3171      3174      3176
      3168      3171      3174      3177      3169      3168      3171      3172
      3169      3168      3171      3173      3169      3168      3171      3174
      3170      3168      3171      3172      3170      3168      3171      3173
      3170      3168      3171      3174      3171      3174      3177      3178
      3171      3174      3177      3179      3171      3174      3177      3180
      3172      3171      3174      3175      3172      3171      3174      3176
      3172      3171      3174      3177      3173      3171      3174      3175
      3173      3171      3174      3176      3173      3171      3174      3177
      3174      3177      3180      3181      3174      3177      3180      3182
      3174      3177      3180      3183      3175      3174      3177      3178
      3175      3174      3177      3179      3175      3174      3177      3180
      3176      3174      3177      3178      3176      3174      3177      3179
      3176      3174      3177      3180      3178      3177      3180      3181
      3178      3177      3180      3182      3178      3177      3180      3183
      3179      3177      3180      3181      3179      3177      3180      3182
      3179      3177      3180      3183      3184      3188      3190      3191
      3184      3188      3190      3192      3184      3188      3193      3194
      3184      3188      3193      3195      3184      3188      3193      3199
      3185      3184      3188      3189      3185      3184      3188      3190
      3185      3184      3188      3193      3186      3184      3188      3189
      3186      3184      3188      3190      3186      3184      3188      3193
      3187      3184      3188      3189      3187      3184      3188      3190
      3187      3184      3188      3193      3188      3193      3199      3196
      3189      3188      3190      3191      3189      3188      3190      3192
      3189      3188      3193      3194      3189      3188      3193      3195
      3189      3188      3193      3199      3190      3188      3193      3194
      3190      3188      3193      3195      3190      3188      3193      3199
      3191      3190      3188      3193      3192      3190      3188      3193
      3193      3199      3196      3197      3193      3199      3196      3198
      3193      3199      3196      3200      3194      3193      3199      3196
      3195      3193      3199      3196      3196      3200      3201      3202
      3196      3200      3201      3203      3196      3200      3201      3204
      3197      3196      3200      3201      3198      3196      3200      3201
      3199      3196      3200      3201      3200      3201      3204      3205
      3200      3201      3204      3206      3200      3201      3204      3212
      3201      3204      3206      3207      3201      3204      3212      3213
      3201      3204      3212      3214      3201      3204      3212      3215
      3202      3201      3204      3205      3202      3201      3204      3206
      3202      3201      3204      3212      3203      3201      3204      3205
      3203      3201      3204      3206      3203      3201      3204      3212
      3204      3206      3207      3208      3204      3206      3207      3209
      3204      3212      3215      3216      3205      3204      3206      3207
      3205      3204      3212      3213      3205      3204      3212      3214
      3205      3204      3212      3215      3206      3204      3212      3213
      3206      3204      3212      3214      3206      3204      3212      3215
      3206      3207      3209      3210      3206      3207      3209      3211
      3206      3207      3209      3221      3207      3206      3204      3212
      3207      3209      3221      3222      3207      3209      3221      3223
      3207      3209      3221      3224      3208      3207      3209      3210
      3208      3207      3209      3211      3208      3207      3209      3221
      3209      3221      3224      3225      3209      3221      3224      3226
      3209      3221      3224      3227      3210      3209      3221      3222
      3210      3209      3221      3223      3210      3209      3221      3224
      3211      3209      3221      3222      3211      3209      3221      3223
      3211      3209      3221      3224      3212      3215      3216      3217
      3212      3215      3216      3218      3213      3212      3215      3216
      3214      3212      3215      3216      3215      3216      3218      3219
      3215      3216      3218      3220      3215      3216      3218      3268
      3216      3218      3268      3269      3216      3218      3268      3270
      3216      3218      3268      3271      3217      3216      3218      3219
      3217      3216      3218      3220      3217      3216      3218      3268
      3218      3268      3271      3272      3218      3268      3271      3273
      3218      3268      3271      3274      3219      3218      3268      3269
      3219      3218      3268      3270      3219      3218      3268      3271
      3220      3218      3268      3269      3220      3218      3268      3270
      3220      3218      3268      3271      3221      3224      3227      3228
      3221      3224      3227      3229      3221      3224      3227      3230
      3222      3221      3224      3225      3222      3221      3224      3226
      3222      3221      3224      3227      3223      3221      3224      3225
      3223      3221      3224      3226      3223      3221      3224      3227
      3224      3227      3230      3231      3224      3227      3230      3232
      3224      3227      3230      3233      3225      3224      3227      3228
      3225      3224      3227      3229      3225      3224      3227      3230
      3226      3224      3227      3228      3226      3224      3227      3229
      3226      3224      3227      3230      3227      3230      3233      3234
      3227      3230      3233      3235      3227      3230      3233      3236
      3228      3227      3230      3231      3228      3227      3230      3232
      3228      3227      3230      3233      3229      3227      3230      3231
      3229      3227      3230      3232      3229      3227      3230      3233
      3230      3233      3236      3237      3230      3233      3236      3238
      3230      3233      3236      3239      3231      3230      3233      3234
      3231      3230      3233      3235      3231      3230      3233      3236
      3232      3230      3233      3234      3232      3230      3233      3235
      3232      3230      3233      3236      3233      3236      3239      3240
      3233      3236      3239      3241      3234      3233      3236      3237
      3234      3233      3236      3238      3234      3233      3236      3239
      3235      3233      3236      3237      3235      3233      3236      3238
      3235      3233      3236      3239      3236      3239      3241      3242
      3236      3239      3241      3243      3237      3236      3239      3240
      3237      3236      3239      3241      3238      3236      3239      3240
      3238      3236      3239      3241      3239      3241      3243      3244
      3239      3241      3243      3245      3239      3241      3243      3246
      3240      3239      3241      3242      3240      3239      3241      3243
      3241      3243      3246      3247      3241      3243      3246      3248
      3241      3243      3246      3249      3242      3241      3243      3244
      3242      3241      3243      3245      3242      3241      3243      3246
      3243      3246      3249      3250      3243      3246      3249      3251
      3243      3246      3249      3252      3244      3243      3246      3247
      3244      3243      3246      3248      3244      3243      3246      3249
      3245      3243      3246      3247      3245      3243      3246      3248
      3245      3243      3246      3249      3246      3249      3252      3253
      3246      3249      3252      3254      3246      3249      3252      3255
      3247      3246      3249      3250      3247      3246      3249      3251
      3247      3246      3249      3252      3248      3246      3249      3250
      3248      3246      3249      3251      3248      3246      3249      3252
      3249      3252      3255      3256      3249      3252      3255      3257
      3249      3252      3255      3258      3250      3249      3252      3253
      3250      3249      3252      3254      3250      3249      3252      3255
      3251      3249      3252      3253      3251      3249      3252      3254
      3251      3249      3252      3255      3252      3255      3258      3259
      3252      3255      3258      3260      3252      3255      3258      3261
      3253      3252      3255      3256      3253      3252      3255      3257
      3253      3252      3255      3258      3254      3252      3255      3256
      3254      3252      3255      3257      3254      3252      3255      3258
      3255      3258      3261      3262      3255      3258      3261      3263
      3255      3258      3261      3264      3256      3255      3258      3259
      3256      3255      3258      3260      3256      3255      3258      3261
      3257      3255      3258      3259      3257      3255      3258      3260
      3257      3255      3258      3261      3258      3261      3264      3265
      3258      3261      3264      3266      3258      3261      3264      3267
      3259      3258      3261      3262      3259      3258      3261      3263
      3259      3258      3261      3264      3260      3258      3261      3262
      3260      3258      3261      3263      3260      3258      3261      3264
      3262      3261      3264      3265      3262      3261      3264      3266
      3262      3261      3264      3267      3263      3261      3264      3265
      3263      3261      3264      3266      3263      3261      3264      3267
      3268      3271      3274      3275      3268      3271      3274      3276
      3268      3271      3274      3277      3269      3268      3271      3272
      3269      3268      3271      3273      3269      3268      3271      3274
      3270      3268      3271      3272      3270      3268      3271      3273
      3270      3268      3271      3274      3271      3274      3277      3278
      3271      3274      3277      3279      3271      3274      3277      3280
      3272      3271      3274      3275      3272      3271      3274      3276
      3272      3271      3274      3277      3273      3271      3274      3275
      3273      3271      3274      3276      3273      3271      3274      3277
      3274      3277      3280      3281      3274      3277      3280      3282
      3274      3277      3280      3283      3275      3274      3277      3278
      3275      3274      3277      3279      3275      3274      3277      3280
      3276      3274      3277      3278      3276      3274      3277      3279
      3276      3274      3277      3280      3277      3280      3283      3284
      3277      3280      3283      3285      3277      3280      3283      3286
      3278      3277      3280      3281      3278      3277      3280      3282
      3278      3277      3280      3283      3279      3277      3280      3281
      3279      3277      3280      3282      3279      3277      3280      3283
      3280      3283      3286      3287      3280      3283      3286      3288
      3280      3283      3286      3289      3281      3280      3283      3284
      3281      3280      3283      3285      3281      3280      3283      3286
      3282      3280      3283      3284      3282      3280      3283      3285
      3282      3280      3283      3286      3283      3286      3289      3290
      3283      3286      3289      3291      3283      3286      3289      3292
      3284      3283      3286      3287      3284      3283      3286      3288
      3284      3283      3286      3289      3285      3283      3286      3287
      3285      3283      3286      3288      3285      3283      3286      3289
      3286      3289      3292      3293      3286      3289      3292      3294
      3286      3289      3292      3295      3287      3286      3289      3290
      3287      3286      3289      3291      3287      3286      3289      3292
      3288      3286      3289      3290      3288      3286      3289      3291
      3288      3286      3289      3292      3289      3292      3295      3296
      3289      3292      3295      3297      3289      3292      3295      3298
      3290      3289      3292      3293      3290      3289      3292      3294
      3290      3289      3292      3295      3291      3289      3292      3293
      3291      3289      3292      3294      3291      3289      3292      3295
      3292      3295      3298      3299      3292      3295      3298      3300
      3292      3295      3298      3301      3293      3292      3295      3296
      3293      3292      3295      3297      3293      3292      3295      3298
      3294      3292      3295      3296      3294      3292      3295      3297
      3294      3292      3295      3298      3295      3298      3301      3302
      3295      3298      3301      3303      3295      3298      3301      3304
      3296      3295      3298      3299      3296      3295      3298      3300
      3296      3295      3298      3301      3297      3295      3298      3299
      3297      3295      3298      3300      3297      3295      3298      3301
      3298      3301      3304      3305      3298      3301      3304      3306
      3298      3301      3304      3307      3299      3298      3301      3302
      3299      3298      3301      3303      3299      3298      3301      3304
      3300      3298      3301      3302      3300      3298      3301      3303
      3300      3298      3301      3304      3301      3304      3307      3308
      3301      3304      3307      3309      3301      3304      3307      3310
      3302      3301      3304      3305      3302      3301      3304      3306
      3302      3301      3304      3307      3303      3301      3304      3305
      3303      3301      3304      3306      3303      3301      3304      3307
      3305      3304      3307      3308      3305      3304      3307      3309
      3305      3304      3307      3310      3306      3304      3307      3308
      3306      3304      3307      3309      3306      3304      3307      3310
      3311      3312      3327      3328      3311      3312      3327      3329
      3311      3312      3327      3333      3312      3311      3315      3316
      3312      3311      3315      3317      3312      3311      3315      3318
      3312      3311      3319      3320      3312      3311      3319      3321
      3312      3311      3319      3322      3312      3311      3323      3324
      3312      3311      3323      3325      3312      3311      3323      3326
      3312      3327      3333      3330      3313      3312      3311      3315
      3313      3312      3311      3319      3313      3312      3311      3323
      3313      3312      3327      3328      3313      3312      3327      3329
      3313      3312      3327      3333      3314      3312      3311      3315
      3314      3312      3311      3319      3314      3312      3311      3323
      3314      3312      3327      3328      3314      3312      3327      3329
      3314      3312      3327      3333      3315      3311      3312      3327
      3315      3311      3319      3320      3315      3311      3319      3321
      3315      3311      3319      3322      3315      3311      3323      3324
      3315      3311      3323      3325      3315      3311      3323      3326
      3316      3315      3311      3319      3316      3315      3311      3323
      3317      3315      3311      3319      3317      3315      3311      3323
      3318      3315      3311      3319      3318      3315      3311      3323
      3319      3311      3312      3327      3319      3311      3323      3324
      3319      3311      3323      3325      3319      3311      3323      3326
      3320      3319      3311      3323      3321      3319      3311      3323
      3322      3319      3311      3323      3323      3311      3312      3327
      3327      3333      3330      3331      3327      3333      3330      3332
      3327      3333      3330      3334      3328      3327      3333      3330
      3329      3327      3333      3330      3330      3334      3335      3336
      3330      3334      3335      3337      3330      3334      3335      3338
      3331      3330      3334      3335      3332      3330      3334      3335
      3333      3330      3334      3335      3334      3335      3338      3339
      3334      3335      3338      3340      3334      3335      3338      3346
      3335      3338      3340      3341      3335      3338      3346      3347
      3335      3338      3346      3348      3335      3338      3346      3349
      3336      3335      3338      3339      3336      3335      3338      3340
      3336      3335      3338      3346      3337      3335      3338      3339
      3337      3335      3338      3340      3337      3335      3338      3346
      3338      3340      3341      3342      3338      3340      3341      3343
      3338      3346      3349      3350      3339      3338      3340      3341
      3339      3338      3346      3347      3339      3338      3346      3348
      3339      3338      3346      3349      3340      3338      3346      3347
      3340      3338      3346      3348      3340      3338      3346      3349
      3340      3341      3343      3344      3340      3341      3343      3345
      3340      3341      3343      3355      3341      3340      3338      3346
      3341      3343      3355      3356      3341      3343      3355      3357
      3341      3343      3355      3358      3342      3341      3343      3344
      3342      3341      3343      3345      3342      3341      3343      3355
      3343      3355      3358      3359      3343      3355      3358      3360
      3343      3355      3358      3361      3344      3343      3355      3356
      3344      3343      3355      3357      3344      3343      3355      3358
      3345      3343      3355      3356      3345      3343      3355      3357
      3345      3343      3355      3358      3346      3349      3350      3351
      3346      3349      3350      3352      3347      3346      3349      3350
      3348      3346      3349      3350      3349      3350      3352      3353
      3349      3350      3352      3354      3349      3350      3352      3402
      3350      3352      3402      3403      3350      3352      3402      3404
      3350      3352      3402      3405      3351      3350      3352      3353
      3351      3350      3352      3354      3351      3350      3352      3402
      3352      3402      3405      3406      3352      3402      3405      3407
      3352      3402      3405      3408      3353      3352      3402      3403
      3353      3352      3402      3404      3353      3352      3402      3405
      3354      3352      3402      3403      3354      3352      3402      3404
      3354      3352      3402      3405      3355      3358      3361      3362
      3355      3358      3361      3363      3355      3358      3361      3364
      3356      3355      3358      3359      3356      3355      3358      3360
      3356      3355      3358      3361      3357      3355      3358      3359
      3357      3355      3358      3360      3357      3355      3358      3361
      3358      3361      3364      3365      3358      3361      3364      3366
      3358      3361      3364      3367      3359      3358      3361      3362
      3359      3358      3361      3363      3359      3358      3361      3364
      3360      3358      3361      3362      3360      3358      3361      3363
      3360      3358      3361      3364      3361      3364      3367      3368
      3361      3364      3367      3369      3361      3364      3367      3370
      3362      3361      3364      3365      3362      3361      3364      3366
      3362      3361      3364      3367      3363      3361      3364      3365
      3363      3361      3364      3366      3363      3361      3364      3367
      3364      3367      3370      3371      3364      3367      3370      3372
      3364      3367      3370      3373      3365      3364      3367      3368
      3365      3364      3367      3369      3365      3364      3367      3370
      3366      3364      3367      3368      3366      3364      3367      3369
      3366      3364      3367      3370      3367      3370      3373      3374
      3367      3370      3373      3375      3368      3367      3370      3371
      3368      3367      3370      3372      3368      3367      3370      3373
      3369      3367      3370      3371      3369      3367      3370      3372
      3369      3367      3370      3373      3370      3373      3375      3376
      3370      3373      3375      3377      3371      3370      3373      3374
      3371      3370      3373      3375      3372      3370      3373      3374
      3372      3370      3373      3375      3373      3375      3377      3378
      3373      3375      3377      3379      3373      3375      3377      3380
      3374      3373      3375      3376      3374      3373      3375      3377
      3375      3377      3380      3381      3375      3377      3380      3382
      3375      3377      3380      3383      3376      3375      3377      3378
      3376      3375      3377      3379      3376      3375      3377      3380
      3377      3380      3383      3384      3377      3380      3383      3385
      3377      3380      3383      3386      3378      3377      3380      3381
      3378      3377      3380      3382      3378      3377      3380      3383
      3379      3377      3380      3381      3379      3377      3380      3382
      3379      3377      3380      3383      3380      3383      3386      3387
      3380      3383      3386      3388      3380      3383      3386      3389
      3381      3380      3383      3384      3381      3380      3383      3385
      3381      3380      3383      3386      3382      3380      3383      3384
      3382      3380      3383      3385      3382      3380      3383      3386
      3383      3386      3389      3390      3383      3386      3389      3391
      3383      3386      3389      3392      3384      3383      3386      3387
      3384      3383      3386      3388      3384      3383      3386      3389
      3385      3383      3386      3387      3385      3383      3386      3388
      3385      3383      3386      3389      3386      3389      3392      3393
      3386      3389      3392      3394      3386      3389      3392      3395
      3387      3386      3389      3390      3387      3386      3389      3391
      3387      3386      3389      3392      3388      3386      3389      3390
      3388      3386      3389      3391      3388      3386      3389      3392
      3389      3392      3395      3396      3389      3392      3395      3397
      3389      3392      3395      3398      3390      3389      3392      3393
      3390      3389      3392      3394      3390      3389      3392      3395
      3391      3389      3392      3393      3391      3389      3392      3394
      3391      3389      3392      3395      3392      3395      3398      3399
      3392      3395      3398      3400      3392      3395      3398      3401
      3393      3392      3395      3396      3393      3392      3395      3397
      3393      3392      3395      3398      3394      3392      3395      3396
      3394      3392      3395      3397      3394      3392      3395      3398
      3396      3395      3398      3399      3396      3395      3398      3400
      3396      3395      3398      3401      3397      3395      3398      3399
      3397      3395      3398      3400      3397      3395      3398      3401
      3402      3405      3408      3409      3402      3405      3408      3410
      3402      3405      3408      3411      3403      3402      3405      3406
      3403      3402      3405      3407      3403      3402      3405      3408
      3404      3402      3405      3406      3404      3402      3405      3407
      3404      3402      3405      3408      3405      3408      3411      3412
      3405      3408      3411      3413      3405      3408      3411      3414
      3406      3405      3408      3409      3406      3405      3408      3410
      3406      3405      3408      3411      3407      3405      3408      3409
      3407      3405      3408      3410      3407      3405      3408      3411
      3408      3411      3414      3415      3408      3411      3414      3416
      3408      3411      3414      3417      3409      3408      3411      3412
      3409      3408      3411      3413      3409      3408      3411      3414
      3410      3408      3411      3412      3410      3408      3411      3413
      3410      3408      3411      3414      3411      3414      3417      3418
      3411      3414      3417      3419      3411      3414      3417      3420
      3412      3411      3414      3415      3412      3411      3414      3416
      3412      3411      3414      3417      3413      3411      3414      3415
      3413      3411      3414      3416      3413      3411      3414      3417
      3414      3417      3420      3421      3414      3417      3420      3422
      3414      3417      3420      3423      3415      3414      3417      3418
      3415      3414      3417      3419      3415      3414      3417      3420
      3416      3414      3417      3418      3416      3414      3417      3419
      3416      3414      3417      3420      3417      3420      3423      3424
      3417      3420      3423      3425      3417      3420      3423      3426
      3418      3417      3420      3421      3418      3417      3420      3422
      3418      3417      3420      3423      3419      3417      3420      3421
      3419      3417      3420      3422      3419      3417      3420      3423
      3420      3423      3426      3427      3420      3423      3426      3428
      3420      3423      3426      3429      3421      3420      3423      3424
      3421      3420      3423      3425      3421      3420      3423      3426
      3422      3420      3423      3424      3422      3420      3423      3425
      3422      3420      3423      3426      3423      3426      3429      3430
      3423      3426      3429      3431      3423      3426      3429      3432
      3424      3423      3426      3427      3424      3423      3426      3428
      3424      3423      3426      3429      3425      3423      3426      3427
      3425      3423      3426      3428      3425      3423      3426      3429
      3426      3429      3432      3433      3426      3429      3432      3434
      3426      3429      3432      3435      3427      3426      3429      3430
      3427      3426      3429      3431      3427      3426      3429      3432
      3428      3426      3429      3430      3428      3426      3429      3431
      3428      3426      3429      3432      3429      3432      3435      3436
      3429      3432      3435      3437      3429      3432      3435      3438
      3430      3429      3432      3433      3430      3429      3432      3434
      3430      3429      3432      3435      3431      3429      3432      3433
      3431      3429      3432      3434      3431      3429      3432      3435
      3432      3435      3438      3439      3432      3435      3438      3440
      3432      3435      3438      3441      3433      3432      3435      3436
      3433      3432      3435      3437      3433      3432      3435      3438
      3434      3432      3435      3436      3434      3432      3435      3437
      3434      3432      3435      3438      3435      3438      3441      3442
      3435      3438      3441      3443      3435      3438      3441      3444
      3436      3435      3438      3439      3436      3435      3438      3440
      3436      3435      3438      3441      3437      3435      3438      3439
      3437      3435      3438      3440      3437      3435      3438      3441
      3439      3438      3441      3442      3439      3438      3441      3443
      3439      3438      3441      3444      3440      3438      3441      3442
      3440      3438      3441      3443      3440      3438      3441      3444
      3445      3446      3461      3462      3445      3446      3461      3463
      3445      3446      3461      3467      3446      3445      3449      3450
      3446      3445      3449      3451      3446      3445      3449      3452
      3446      3445      3453      3454      3446      3445      3453      3455
      3446      3445      3453      3456      3446      3445      3457      3458
      3446      3445      3457      3459      3446      3445      3457      3460
      3446      3461      3467      3464      3447      3446      3445      3449
      3447      3446      3445      3453      3447      3446      3445      3457
      3447      3446      3461      3462      3447      3446      3461      3463
      3447      3446      3461      3467      3448      3446      3445      3449
      3448      3446      3445      3453      3448      3446      3445      3457
      3448      3446      3461      3462      3448      3446      3461      3463
      3448      3446      3461      3467      3449      3445      3446      3461
      3449      3445      3453      3454      3449      3445      3453      3455
      3449      3445      3453      3456      3449      3445      3457      3458
      3449      3445      3457      3459      3449      3445      3457      3460
      3450      3449      3445      3453      3450      3449      3445      3457
      3451      3449      3445      3453      3451      3449      3445      3457
      3452      3449      3445      3453      3452      3449      3445      3457
      3453      3445      3446      3461      3453      3445      3457      3458
      3453      3445      3457      3459      3453      3445      3457      3460
      3454      3453      3445      3457      3455      3453      3445      3457
      3456      3453      3445      3457      3457      3445      3446      3461
      3461      3467      3464      3465      3461      3467      3464      3466
      3461      3467      3464      3468      3462      3461      3467      3464
      3463      3461      3467      3464      3464      3468      3469      3470
      3464      3468      3469      3471      3464      3468      3469      3472
      3465      3464      3468      3469      3466      3464      3468      3469
      3467      3464      3468      3469      3468      3469      3472      3473
      3468      3469      3472      3474      3468      3469      3472      3480
      3469      3472      3474      3475      3469      3472      3480      3481
      3469      3472      3480      3482      3469      3472      3480      3483
      3470      3469      3472      3473      3470      3469      3472      3474
      3470      3469      3472      3480      3471      3469      3472      3473
      3471      3469      3472      3474      3471      3469      3472      3480
      3472      3474      3475      3476      3472      3474      3475      3477
      3472      3480      3483      3484      3473      3472      3474      3475
      3473      3472      3480      3481      3473      3472      3480      3482
      3473      3472      3480      3483      3474      3472      3480      3481
      3474      3472      3480      3482      3474      3472      3480      3483
      3474      3475      3477      3478      3474      3475      3477      3479
      3474      3475      3477      3489      3475      3474      3472      3480
      3475      3477      3489      3490      3475      3477      3489      3491
      3475      3477      3489      3492      3476      3475      3477      3478
      3476      3475      3477      3479      3476      3475      3477      3489
      3477      3489      3492      3493      3477      3489      3492      3494
      3477      3489      3492      3495      3478      3477      3489      3490
      3478      3477      3489      3491      3478      3477      3489      3492
      3479      3477      3489      3490      3479      3477      3489      3491
      3479      3477      3489      3492      3480      3483      3484      3485
      3480      3483      3484      3486      3481      3480      3483      3484
      3482      3480      3483      3484      3483      3484      3486      3487
      3483      3484      3486      3488      3483      3484      3486      3536
      3484      3486      3536      3537      3484      3486      3536      3538
      3484      3486      3536      3539      3485      3484      3486      3487
      3485      3484      3486      3488      3485      3484      3486      3536
      3486      3536      3539      3540      3486      3536      3539      3541
      3486      3536      3539      3542      3487      3486      3536      3537
      3487      3486      3536      3538      3487      3486      3536      3539
      3488      3486      3536      3537      3488      3486      3536      3538
      3488      3486      3536      3539      3489      3492      3495      3496
      3489      3492      3495      3497      3489      3492      3495      3498
      3490      3489      3492      3493      3490      3489      3492      3494
      3490      3489      3492      3495      3491      3489      3492      3493
      3491      3489      3492      3494      3491      3489      3492      3495
      3492      3495      3498      3499      3492      3495      3498      3500
      3492      3495      3498      3501      3493      3492      3495      3496
      3493      3492      3495      3497      3493      3492      3495      3498
      3494      3492      3495      3496      3494      3492      3495      3497
      3494      3492      3495      3498      3495      3498      3501      3502
      3495      3498      3501      3503      3495      3498      3501      3504
      3496      3495      3498      3499      3496      3495      3498      3500
      3496      3495      3498      3501      3497      3495      3498      3499
      3497      3495      3498      3500      3497      3495      3498      3501
      3498      3501      3504      3505      3498      3501      3504      3506
      3498      3501      3504      3507      3499      3498      3501      3502
      3499      3498      3501      3503      3499      3498      3501      3504
      3500      3498      3501      3502      3500      3498      3501      3503
      3500      3498      3501      3504      3501      3504      3507      3508
      3501      3504      3507      3509      3502      3501      3504      3505
      3502      3501      3504      3506      3502      3501      3504      3507
      3503      3501      3504      3505      3503      3501      3504      3506
      3503      3501      3504      3507      3504      3507      3509      3510
      3504      3507      3509      3511      3505      3504      3507      3508
      3505      3504      3507      3509      3506      3504      3507      3508
      3506      3504      3507      3509      3507      3509      3511      3512
      3507      3509      3511      3513      3507      3509      3511      3514
      3508      3507      3509      3510      3508      3507      3509      3511
      3509      3511      3514      3515      3509      3511      3514      3516
      3509      3511      3514      3517      3510      3509      3511      3512
      3510      3509      3511      3513      3510      3509      3511      3514
      3511      3514      3517      3518      3511      3514      3517      3519
      3511      3514      3517      3520      3512      3511      3514      3515
      3512      3511      3514      3516      3512      3511      3514      3517
      3513      3511      3514      3515      3513      3511      3514      3516
      3513      3511      3514      3517      3514      3517      3520      3521
      3514      3517      3520      3522      3514      3517      3520      3523
      3515      3514      3517      3518      3515      3514      3517      3519
      3515      3514      3517      3520      3516      3514      3517      3518
      3516      3514      3517      3519      3516      3514      3517      3520
      3517      3520      3523      3524      3517      3520      3523      3525
      3517      3520      3523      3526      3518      3517      3520      3521
      3518      3517      3520      3522      3518      3517      3520      3523
      3519      3517      3520      3521      3519      3517      3520      3522
      3519      3517      3520      3523      3520      3523      3526      3527
      3520      3523      3526      3528      3520      3523      3526      3529
      3521      3520      3523      3524      3521      3520      3523      3525
      3521      3520      3523      3526      3522      3520      3523      3524
      3522      3520      3523      3525      3522      3520      3523      3526
      3523      3526      3529      3530      3523      3526      3529      3531
      3523      3526      3529      3532      3524      3523      3526      3527
      3524      3523      3526      3528      3524      3523      3526      3529
      3525      3523      3526      3527      3525      3523      3526      3528
      3525      3523      3526      3529      3526      3529      3532      3533
      3526      3529      3532      3534      3526      3529      3532      3535
      3527      3526      3529      3530      3527      3526      3529      3531
      3527      3526      3529      3532      3528      3526      3529      3530
      3528      3526      3529      3531      3528      3526      3529      3532
      3530      3529      3532      3533      3530      3529      3532      3534
      3530      3529      3532      3535      3531      3529      3532      3533
      3531      3529      3532      3534      3531      3529      3532      3535
      3536      3539      3542      3543      3536      3539      3542      3544
      3536      3539      3542      3545      3537      3536      3539      3540
      3537      3536      3539      3541      3537      3536      3539      3542
      3538      3536      3539      3540      3538      3536      3539      3541
      3538      3536      3539      3542      3539      3542      3545      3546
      3539      3542      3545      3547      3539      3542      3545      3548
      3540      3539      3542      3543      3540      3539      3542      3544
      3540      3539      3542      3545      3541      3539      3542      3543
      3541      3539      3542      3544      3541      3539      3542      3545
      3542      3545      3548      3549      3542      3545      3548      3550
      3542      3545      3548      3551      3543      3542      3545      3546
      3543      3542      3545      3547      3543      3542      3545      3548
      3544      3542      3545      3546      3544      3542      3545      3547
      3544      3542      3545      3548      3545      3548      3551      3552
      3545      3548      3551      3553      3545      3548      3551      3554
      3546      3545      3548      3549      3546      3545      3548      3550
      3546      3545      3548      3551      3547      3545      3548      3549
      3547      3545      3548      3550      3547      3545      3548      3551
      3548      3551      3554      3555      3548      3551      3554      3556
      3548      3551      3554      3557      3549      3548      3551      3552
      3549      3548      3551      3553      3549      3548      3551      3554
      3550      3548      3551      3552      3550      3548      3551      3553
      3550      3548      3551      3554      3551      3554      3557      3558
      3551      3554      3557      3559      3551      3554      3557      3560
      3552      3551      3554      3555      3552      3551      3554      3556
      3552      3551      3554      3557      3553      3551      3554      3555
      3553      3551      3554      3556      3553      3551      3554      3557
      3554      3557      3560      3561      3554      3557      3560      3562
      3554      3557      3560      3563      3555      3554      3557      3558
      3555      3554      3557      3559      3555      3554      3557      3560
      3556      3554      3557      3558      3556      3554      3557      3559
      3556      3554      3557      3560      3557      3560      3563      3564
      3557      3560      3563      3565      3557      3560      3563      3566
      3558      3557      3560      3561      3558      3557      3560      3562
      3558      3557      3560      3563      3559      3557      3560      3561
      3559      3557      3560      3562      3559      3557      3560      3563
      3560      3563      3566      3567      3560      3563      3566      3568
      3560      3563      3566      3569      3561      3560      3563      3564
      3561      3560      3563      3565      3561      3560      3563      3566
      3562      3560      3563      3564      3562      3560      3563      3565
      3562      3560      3563      3566      3563      3566      3569      3570
      3563      3566      3569      3571      3563      3566      3569      3572
      3564      3563      3566      3567      3564      3563      3566      3568
      3564      3563      3566      3569      3565      3563      3566      3567
      3565      3563      3566      3568      3565      3563      3566      3569
      3566      3569      3572      3573      3566      3569      3572      3574
      3566      3569      3572      3575      3567      3566      3569      3570
      3567      3566      3569      3571      3567      3566      3569      3572
      3568      3566      3569      3570      3568      3566      3569      3571
      3568      3566      3569      3572      3569      3572      3575      3576
      3569      3572      3575      3577      3569      3572      3575      3578
      3570      3569      3572      3573      3570      3569      3572      3574
      3570      3569      3572      3575      3571      3569      3572      3573
      3571      3569      3572      3574      3571      3569      3572      3575
      3573      3572      3575      3576      3573      3572      3575      3577
      3573      3572      3575      3578      3574      3572      3575      3576
      3574      3572      3575      3577      3574      3572      3575      3578
      3579      3580      3595      3596      3579      3580      3595      3597
      3579      3580      3595      3601      3580      3579      3583      3584
      3580      3579      3583      3585      3580      3579      3583      3586
      3580      3579      3587      3588      3580      3579      3587      3589
      3580      3579      3587      3590      3580      3579      3591      3592
      3580      3579      3591      3593      3580      3579      3591      3594
      3580      3595      3601      3598      3581      3580      3579      3583
      3581      3580      3579      3587      3581      3580      3579      3591
      3581      3580      3595      3596      3581      3580      3595      3597
      3581      3580      3595      3601      3582      3580      3579      3583
      3582      3580      3579      3587      3582      3580      3579      3591
      3582      3580      3595      3596      3582      3580      3595      3597
      3582      3580      3595      3601      3583      3579      3580      3595
      3583      3579      3587      3588      3583      3579      3587      3589
      3583      3579      3587      3590      3583      3579      3591      3592
      3583      3579      3591      3593      3583      3579      3591      3594
      3584      3583      3579      3587      3584      3583      3579      3591
      3585      3583      3579      3587      3585      3583      3579      3591
      3586      3583      3579      3587      3586      3583      3579      3591
      3587      3579      3580      3595      3587      3579      3591      3592
      3587      3579      3591      3593      3587      3579      3591      3594
      3588      3587      3579      3591      3589      3587      3579      3591
      3590      3587      3579      3591      3591      3579      3580      3595
      3595      3601      3598      3599      3595      3601      3598      3600
      3595      3601      3598      3602      3596      3595      3601      3598
      3597      3595      3601      3598      3598      3602      3603      3604
      3598      3602      3603      3605      3598      3602      3603      3606
      3599      3598      3602      3603      3600      3598      3602      3603
      3601      3598      3602      3603      3602      3603      3606      3607
      3602      3603      3606      3608      3602      3603      3606      3614
      3603      3606      3608      3609      3603      3606      3614      3615
      3603      3606      3614      3616      3603      3606      3614      3617
      3604      3603      3606      3607      3604      3603      3606      3608
      3604      3603      3606      3614      3605      3603      3606      3607
      3605      3603      3606      3608      3605      3603      3606      3614
      3606      3608      3609      3610      3606      3608      3609      3611
      3606      3614      3617      3618      3607      3606      3608      3609
      3607      3606      3614      3615      3607      3606      3614      3616
      3607      3606      3614      3617      3608      3606      3614      3615
      3608      3606      3614      3616      3608      3606      3614      3617
      3608      3609      3611      3612      3608      3609      3611      3613
      3608      3609      3611      3623      3609      3608      3606      3614
      3609      3611      3623      3624      3609      3611      3623      3625
      3609      3611      3623      3626      3610      3609      3611      3612
      3610      3609      3611      3613      3610      3609      3611      3623
      3611      3623      3626      3627      3611      3623      3626      3628
      3611      3623      3626      3629      3612      3611      3623      3624
      3612      3611      3623      3625      3612      3611      3623      3626
      3613      3611      3623      3624      3613      3611      3623      3625
      3613      3611      3623      3626      3614      3617      3618      3619
      3614      3617      3618      3620      3615      3614      3617      3618
      3616      3614      3617      3618      3617      3618      3620      3621
      3617      3618      3620      3622      3617      3618      3620      3670
      3618      3620      3670      3671      3618      3620      3670      3672
      3618      3620      3670      3673      3619      3618      3620      3621
      3619      3618      3620      3622      3619      3618      3620      3670
      3620      3670      3673      3674      3620      3670      3673      3675
      3620      3670      3673      3676      3621      3620      3670      3671
      3621      3620      3670      3672      3621      3620      3670      3673
      3622      3620      3670      3671      3622      3620      3670      3672
      3622      3620      3670      3673      3623      3626      3629      3630
      3623      3626      3629      3631      3623      3626      3629      3632
      3624      3623      3626      3627      3624      3623      3626      3628
      3624      3623      3626      3629      3625      3623      3626      3627
      3625      3623      3626      3628      3625      3623      3626      3629
      3626      3629      3632      3633      3626      3629      3632      3634
      3626      3629      3632      3635      3627      3626      3629      3630
      3627      3626      3629      3631      3627      3626      3629      3632
      3628      3626      3629      3630      3628      3626      3629      3631
      3628      3626      3629      3632      3629      3632      3635      3636
      3629      3632      3635      3637      3629      3632      3635      3638
      3630      3629      3632      3633      3630      3629      3632      3634
      3630      3629      3632      3635      3631      3629      3632      3633
      3631      3629      3632      3634      3631      3629      3632      3635
      3632      3635      3638      3639      3632      3635      3638      3640
      3632      3635      3638      3641      3633      3632      3635      3636
      3633      3632      3635      3637      3633      3632      3635      3638
      3634      3632      3635      3636      3634      3632      3635      3637
      3634      3632      3635      3638      3635      3638      3641      3642
      3635      3638      3641      3643      3636      3635      3638      3639
      3636      3635      3638      3640      3636      3635      3638      3641
      3637      3635      3638      3639      3637      3635      3638      3640
      3637      3635      3638      3641      3638      3641      3643      3644
      3638      3641      3643      3645      3639      3638      3641      3642
      3639      3638      3641      3643      3640      3638      3641      3642
      3640      3638      3641      3643      3641      3643      3645      3646
      3641      3643      3645      3647      3641      3643      3645      3648
      3642      3641      3643      3644      3642      3641      3643      3645
      3643      3645      3648      3649      3643      3645      3648      3650
      3643      3645      3648      3651      3644      3643      3645      3646
      3644      3643      3645      3647      3644      3643      3645      3648
      3645      3648      3651      3652      3645      3648      3651      3653
      3645      3648      3651      3654      3646      3645      3648      3649
      3646      3645      3648      3650      3646      3645      3648      3651
      3647      3645      3648      3649      3647      3645      3648      3650
      3647      3645      3648      3651      3648      3651      3654      3655
      3648      3651      3654      3656      3648      3651      3654      3657
      3649      3648      3651      3652      3649      3648      3651      3653
      3649      3648      3651      3654      3650      3648      3651      3652
      3650      3648      3651      3653      3650      3648      3651      3654
      3651      3654      3657      3658      3651      3654      3657      3659
      3651      3654      3657      3660      3652      3651      3654      3655
      3652      3651      3654      3656      3652      3651      3654      3657
      3653      3651      3654      3655      3653      3651      3654      3656
      3653      3651      3654      3657      3654      3657      3660      3661
      3654      3657      3660      3662      3654      3657      3660      3663
      3655      3654      3657      3658      3655      3654      3657      3659
      3655      3654      3657      3660      3656      3654      3657      3658
      3656      3654      3657      3659      3656      3654      3657      3660
      3657      3660      3663      3664      3657      3660      3663      3665
      3657      3660      3663      3666      3658      3657      3660      3661
      3658      3657      3660      3662      3658      3657      3660      3663
      3659      3657      3660      3661      3659      3657      3660      3662
      3659      3657      3660      3663      3660      3663      3666      3667
      3660      3663      3666      3668      3660      3663      3666      3669
      3661      3660      3663      3664      3661      3660      3663      3665
      3661      3660      3663      3666      3662      3660      3663      3664
      3662      3660      3663      3665      3662      3660      3663      3666
      3664      3663      3666      3667      3664      3663      3666      3668
      3664      3663      3666      3669      3665      3663      3666      3667
      3665      3663      3666      3668      3665      3663      3666      3669
      3670      3673      3676      3677      3670      3673      3676      3678
      3670      3673      3676      3679      3671      3670      3673      3674
      3671      3670      3673      3675      3671      3670      3673      3676
      3672      3670      3673      3674      3672      3670      3673      3675
      3672      3670      3673      3676      3673      3676      3679      3680
      3673      3676      3679      3681      3673      3676      3679      3682
      3674      3673      3676      3677      3674      3673      3676      3678
      3674      3673      3676      3679      3675      3673      3676      3677
      3675      3673      3676      3678      3675      3673      3676      3679
      3676      3679      3682      3683      3676      3679      3682      3684
      3676      3679      3682      3685      3677      3676      3679      3680
      3677      3676      3679      3681      3677      3676      3679      3682
      3678      3676      3679      3680      3678      3676      3679      3681
      3678      3676      3679      3682      3679      3682      3685      3686
      3679      3682      3685      3687      3679      3682      3685      3688
      3680      3679      3682      3683      3680      3679      3682      3684
      3680      3679      3682      3685      3681      3679      3682      3683
      3681      3679      3682      3684      3681      3679      3682      3685
      3682      3685      3688      3689      3682      3685      3688      3690
      3682      3685      3688      3691      3683      3682      3685      3686
      3683      3682      3685      3687      3683      3682      3685      3688
      3684      3682      3685      3686      3684      3682      3685      3687
      3684      3682      3685      3688      3685      3688      3691      3692
      3685      3688      3691      3693      3685      3688      3691      3694
      3686      3685      3688      3689      3686      3685      3688      3690
      3686      3685      3688      3691      3687      3685      3688      3689
      3687      3685      3688      3690      3687      3685      3688      3691
      3688      3691      3694      3695      3688      3691      3694      3696
      3688      3691      3694      3697      3689      3688      3691      3692
      3689      3688      3691      3693      3689      3688      3691      3694
      3690      3688      3691      3692      3690      3688      3691      3693
      3690      3688      3691      3694      3691      3694      3697      3698
      3691      3694      3697      3699      3691      3694      3697      3700
      3692      3691      3694      3695      3692      3691      3694      3696
      3692      3691      3694      3697      3693      3691      3694      3695
      3693      3691      3694      3696      3693      3691      3694      3697
      3694      3697      3700      3701      3694      3697      3700      3702
      3694      3697      3700      3703      3695      3694      3697      3698
      3695      3694      3697      3699      3695      3694      3697      3700
      3696      3694      3697      3698      3696      3694      3697      3699
      3696      3694      3697      3700      3697      3700      3703      3704
      3697      3700      3703      3705      3697      3700      3703      3706
      3698      3697      3700      3701      3698      3697      3700      3702
      3698      3697      3700      3703      3699      3697      3700      3701
      3699      3697      3700      3702      3699      3697      3700      3703
      3700      3703      3706      3707      3700      3703      3706      3708
      3700      3703      3706      3709      3701      3700      3703      3704
      3701      3700      3703      3705      3701      3700      3703      3706
      3702      3700      3703      3704      3702      3700      3703      3705
      3702      3700      3703      3706      3703      3706      3709      3710
      3703      3706      3709      3711      3703      3706      3709      3712
      3704      3703      3706      3707      3704      3703      3706      3708
      3704      3703      3706      3709      3705      3703      3706      3707
      3705      3703      3706      3708      3705      3703      3706      3709
      3707      3706      3709      3710      3707      3706      3709      3711
      3707      3706      3709      3712      3708      3706      3709      3710
      3708      3706      3709      3711      3708      3706      3709      3712
      3713      3714      3729      3730      3713      3714      3729      3731
      3713      3714      3729      3735      3714      3713      3717      3718
      3714      3713      3717      3719      3714      3713      3717      3720
      3714      3713      3721      3722      3714      3713      3721      3723
      3714      3713      3721      3724      3714      3713      3725      3726
      3714      3713      3725      3727      3714      3713      3725      3728
      3714      3729      3735      3732      3715      3714      3713      3717
      3715      3714      3713      3721      3715      3714      3713      3725
      3715      3714      3729      3730      3715      3714      3729      3731
      3715      3714      3729      3735      3716      3714      3713      3717
      3716      3714      3713      3721      3716      3714      3713      3725
      3716      3714      3729      3730      3716      3714      3729      3731
      3716      3714      3729      3735      3717      3713      3714      3729
      3717      3713      3721      3722      3717      3713      3721      3723
      3717      3713      3721      3724      3717      3713      3725      3726
      3717      3713      3725      3727      3717      3713      3725      3728
      3718      3717      3713      3721      3718      3717      3713      3725
      3719      3717      3713      3721      3719      3717      3713      3725
      3720      3717      3713      3721      3720      3717      3713      3725
      3721      3713      3714      3729      3721      3713      3725      3726
      3721      3713      3725      3727      3721      3713      3725      3728
      3722      3721      3713      3725      3723      3721      3713      3725
      3724      3721      3713      3725      3725      3713      3714      3729
      3729      3735      3732      3733      3729      3735      3732      3734
      3729      3735      3732      3736      3730      3729      3735      3732
      3731      3729      3735      3732      3732      3736      3737      3738
      3732      3736      3737      3739      3732      3736      3737      3740
      3733      3732      3736      3737      3734      3732      3736      3737
      3735      3732      3736      3737      3736      3737      3740      3741
      3736      3737      3740      3742      3736      3737      3740      3748
      3737      3740      3742      3743      3737      3740      3748      3749
      3737      3740      3748      3750      3737      3740      3748      3751
      3738      3737      3740      3741      3738      3737      3740      3742
      3738      3737      3740      3748      3739      3737      3740      3741
      3739      3737      3740      3742      3739      3737      3740      3748
      3740      3742      3743      3744      3740      3742      3743      3745
      3740      3748      3751      3752      3741      3740      3742      3743
      3741      3740      3748      3749      3741      3740      3748      3750
      3741      3740      3748      3751      3742      3740      3748      3749
      3742      3740      3748      3750      3742      3740      3748      3751
      3742      3743      3745      3746      3742      3743      3745      3747
      3742      3743      3745      3757      3743      3742      3740      3748
      3743      3745      3757      3758      3743      3745      3757      3759
      3743      3745      3757      3760      3744      3743      3745      3746
      3744      3743      3745      3747      3744      3743      3745      3757
      3745      3757      3760      3761      3745      3757      3760      3762
      3745      3757      3760      3763      3746      3745      3757      3758
      3746      3745      3757      3759      3746      3745      3757      3760
      3747      3745      3757      3758      3747      3745      3757      3759
      3747      3745      3757      3760      3748      3751      3752      3753
      3748      3751      3752      3754      3749      3748      3751      3752
      3750      3748      3751      3752      3751      3752      3754      3755
      3751      3752      3754      3756      3751      3752      3754      3804
      3752      3754      3804      3805      3752      3754      3804      3806
      3752      3754      3804      3807      3753      3752      3754      3755
      3753      3752      3754      3756      3753      3752      3754      3804
      3754      3804      3807      3808      3754      3804      3807      3809
      3754      3804      3807      3810      3755      3754      3804      3805
      3755      3754      3804      3806      3755      3754      3804      3807
      3756      3754      3804      3805      3756      3754      3804      3806
      3756      3754      3804      3807      3757      3760      3763      3764
      3757      3760      3763      3765      3757      3760      3763      3766
      3758      3757      3760      3761      3758      3757      3760      3762
      3758      3757      3760      3763      3759      3757      3760      3761
      3759      3757      3760      3762      3759      3757      3760      3763
      3760      3763      3766      3767      3760      3763      3766      3768
      3760      3763      3766      3769      3761      3760      3763      3764
      3761      3760      3763      3765      3761      3760      3763      3766
      3762      3760      3763      3764      3762      3760      3763      3765
      3762      3760      3763      3766      3763      3766      3769      3770
      3763      3766      3769      3771      3763      3766      3769      3772
      3764      3763      3766      3767      3764      3763      3766      3768
      3764      3763      3766      3769      3765      3763      3766      3767
      3765      3763      3766      3768      3765      3763      3766      3769
      3766      3769      3772      3773      3766      3769      3772      3774
      3766      3769      3772      3775      3767      3766      3769      3770
      3767      3766      3769      3771      3767      3766      3769      3772
      3768      3766      3769      3770      3768      3766      3769      3771
      3768      3766      3769      3772      3769      3772      3775      3776
      3769      3772      3775      3777      3770      3769      3772      3773
      3770      3769      3772      3774      3770      3769      3772      3775
      3771      3769      3772      3773      3771      3769      3772      3774
      3771      3769      3772      3775      3772      3775      3777      3778
      3772      3775      3777      3779      3773      3772      3775      3776
      3773      3772      3775      3777      3774      3772      3775      3776
      3774      3772      3775      3777      3775      3777      3779      3780
      3775      3777      3779      3781      3775      3777      3779      3782
      3776      3775      3777      3778      3776      3775      3777      3779
      3777      3779      3782      3783      3777      3779      3782      3784
      3777      3779      3782      3785      3778      3777      3779      3780
      3778      3777      3779      3781      3778      3777      3779      3782
      3779      3782      3785      3786      3779      3782      3785      3787
      3779      3782      3785      3788      3780      3779      3782      3783
      3780      3779      3782      3784      3780      3779      3782      3785
      3781      3779      3782      3783      3781      3779      3782      3784
      3781      3779      3782      3785      3782      3785      3788      3789
      3782      3785      3788      3790      3782      3785      3788      3791
      3783      3782      3785      3786      3783      3782      3785      3787
      3783      3782      3785      3788      3784      3782      3785      3786
      3784      3782      3785      3787      3784      3782      3785      3788
      3785      3788      3791      3792      3785      3788      3791      3793
      3785      3788      3791      3794      3786      3785      3788      3789
      3786      3785      3788      3790      3786      3785      3788      3791
      3787      3785      3788      3789      3787      3785      3788      3790
      3787      3785      3788      3791      3788      3791      3794      3795
      3788      3791      3794      3796      3788      3791      3794      3797
      3789      3788      3791      3792      3789      3788      3791      3793
      3789      3788      3791      3794      3790      3788      3791      3792
      3790      3788      3791      3793      3790      3788      3791      3794
      3791      3794      3797      3798      3791      3794      3797      3799
      3791      3794      3797      3800      3792      3791      3794      3795
      3792      3791      3794      3796      3792      3791      3794      3797
      3793      3791      3794      3795      3793      3791      3794      3796
      3793      3791      3794      3797      3794      3797      3800      3801
      3794      3797      3800      3802      3794      3797      3800      3803
      3795      3794      3797      3798      3795      3794      3797      3799
      3795      3794      3797      3800      3796      3794      3797      3798
      3796      3794      3797      3799      3796      3794      3797      3800
      3798      3797      3800      3801      3798      3797      3800      3802
      3798      3797      3800      3803      3799      3797      3800      3801
      3799      3797      3800      3802      3799      3797      3800      3803
      3804      3807      3810      3811      3804      3807      3810      3812
      3804      3807      3810      3813      3805      3804      3807      3808
      3805      3804      3807      3809      3805      3804      3807      3810
      3806      3804      3807      3808      3806      3804      3807      3809
      3806      3804      3807      3810      3807      3810      3813      3814
      3807      3810      3813      3815      3807      3810      3813      3816
      3808      3807      3810      3811      3808      3807      3810      3812
      3808      3807      3810      3813      3809      3807      3810      3811
      3809      3807      3810      3812      3809      3807      3810      3813
      3810      3813      3816      3817      3810      3813      3816      3818
      3810      3813      3816      3819      3811      3810      3813      3814
      3811      3810      3813      3815      3811      3810      3813      3816
      3812      3810      3813      3814      3812      3810      3813      3815
      3812      3810      3813      3816      3813      3816      3819      3820
      3813      3816      3819      3821      3813      3816      3819      3822
      3814      3813      3816      3817      3814      3813      3816      3818
      3814      3813      3816      3819      3815      3813      3816      3817
      3815      3813      3816      3818      3815      3813      3816      3819
      3816      3819      3822      3823      3816      3819      3822      3824
      3816      3819      3822      3825      3817      3816      3819      3820
      3817      3816      3819      3821      3817      3816      3819      3822
      3818      3816      3819      3820      3818      3816      3819      3821
      3818      3816      3819      3822      3819      3822      3825      3826
      3819      3822      3825      3827      3819      3822      3825      3828
      3820      3819      3822      3823      3820      3819      3822      3824
      3820      3819      3822      3825      3821      3819      3822      3823
      3821      3819      3822      3824      3821      3819      3822      3825
      3822      3825      3828      3829      3822      3825      3828      3830
      3822      3825      3828      3831      3823      3822      3825      3826
      3823      3822      3825      3827      3823      3822      3825      3828
      3824      3822      3825      3826      3824      3822      3825      3827
      3824      3822      3825      3828      3825      3828      3831      3832
      3825      3828      3831      3833      3825      3828      3831      3834
      3826      3825      3828      3829      3826      3825      3828      3830
      3826      3825      3828      3831      3827      3825      3828      3829
      3827      3825      3828      3830      3827      3825      3828      3831
      3828      3831      3834      3835      3828      3831      3834      3836
      3828      3831      3834      3837      3829      3828      3831      3832
      3829      3828      3831      3833      3829      3828      3831      3834
      3830      3828      3831      3832      3830      3828      3831      3833
      3830      3828      3831      3834      3831      3834      3837      3838
      3831      3834      3837      3839      3831      3834      3837      3840
      3832      3831      3834      3835      3832      3831      3834      3836
      3832      3831      3834      3837      3833      3831      3834      3835
      3833      3831      3834      3836      3833      3831      3834      3837
      3834      3837      3840      3841      3834      3837      3840      3842
      3834      3837      3840      3843      3835      3834      3837      3838
      3835      3834      3837      3839      3835      3834      3837      3840
      3836      3834      3837      3838      3836      3834      3837      3839
      3836      3834      3837      3840      3837      3840      3843      3844
      3837      3840      3843      3845      3837      3840      3843      3846
      3838      3837      3840      3841      3838      3837      3840      3842
      3838      3837      3840      3843      3839      3837      3840      3841
      3839      3837      3840      3842      3839      3837      3840      3843
      3841      3840      3843      3844      3841      3840      3843      3845
      3841      3840      3843      3846      3842      3840      3843      3844
      3842      3840      3843      3845      3842      3840      3843      3846
      3847      3848      3863      3864      3847      3848      3863      3865
      3847      3848      3863      3869      3848      3847      3851      3852
      3848      3847      3851      3853      3848      3847      3851      3854
      3848      3847      3855      3856      3848      3847      3855      3857
      3848      3847      3855      3858      3848      3847      3859      3860
      3848      3847      3859      3861      3848      3847      3859      3862
      3848      3863      3869      3866      3849      3848      3847      3851
      3849      3848      3847      3855      3849      3848      3847      3859
      3849      3848      3863      3864      3849      3848      3863      3865
      3849      3848      3863      3869      3850      3848      3847      3851
      3850      3848      3847      3855      3850      3848      3847      3859
      3850      3848      3863      3864      3850      3848      3863      3865
      3850      3848      3863      3869      3851      3847      3848      3863
      3851      3847      3855      3856      3851      3847      3855      3857
      3851      3847      3855      3858      3851      3847      3859      3860
      3851      3847      3859      3861      3851      3847      3859      3862
      3852      3851      3847      3855      3852      3851      3847      3859
      3853      3851      3847      3855      3853      3851      3847      3859
      3854      3851      3847      3855      3854      3851      3847      3859
      3855      3847      3848      3863      3855      3847      3859      3860
      3855      3847      3859      3861      3855      3847      3859      3862
      3856      3855      3847      3859      3857      3855      3847      3859
      3858      3855      3847      3859      3859      3847      3848      3863
      3863      3869      3866      3867      3863      3869      3866      3868
      3863      3869      3866      3870      3864      3863      3869      3866
      3865      3863      3869      3866      3866      3870      3871      3872
      3866      3870      3871      3873      3866      3870      3871      3874
      3867      3866      3870      3871      3868      3866      3870      3871
      3869      3866      3870      3871      3870      3871      3874      3875
      3870      3871      3874      3876      3870      3871      3874      3882
      3871      3874      3876      3877      3871      3874      3882      3883
      3871      3874      3882      3884      3871      3874      3882      3885
      3872      3871      3874      3875      3872      3871      3874      3876
      3872      3871      3874      3882      3873      3871      3874      3875
      3873      3871      3874      3876      3873      3871      3874      3882
      3874      3876      3877      3878      3874      3876      3877      3879
      3874      3882      3885      3886      3875      3874      3876      3877
      3875      3874      3882      3883      3875      3874      3882      3884
      3875      3874      3882      3885      3876      3874      3882      3883
      3876      3874      3882      3884      3876      3874      3882      3885
      3876      3877      3879      3880      3876      3877      3879      3881
      3876      3877      3879      3891      3877      3876      3874      3882
      3877      3879      3891      3892      3877      3879      3891      3893
      3877      3879      3891      3894      3878      3877      3879      3880
      3878      3877      3879      3881      3878      3877      3879      3891
      3879      3891      3894      3895      3879      3891      3894      3896
      3879      3891      3894      3897      3880      3879      3891      3892
      3880      3879      3891      3893      3880      3879      3891      3894
      3881      3879      3891      3892      3881      3879      3891      3893
      3881      3879      3891      3894      3882      3885      3886      3887
      3882      3885      3886      3888      3883      3882      3885      3886
      3884      3882      3885      3886      3885      3886      3888      3889
      3885      3886      3888      3890      3885      3886      3888      3938
      3886      3888      3938      3939      3886      3888      3938      3940
      3886      3888      3938      3941      3887      3886      3888      3889
      3887      3886      3888      3890      3887      3886      3888      3938
      3888      3938      3941      3942      3888      3938      3941      3943
      3888      3938      3941      3944      3889      3888      3938      3939
      3889      3888      3938      3940      3889      3888      3938      3941
      3890      3888      3938      3939      3890      3888      3938      3940
      3890      3888      3938      3941      3891      3894      3897      3898
      3891      3894      3897      3899      3891      3894      3897      3900
      3892      3891      3894      3895      3892      3891      3894      3896
      3892      3891      3894      3897      3893      3891      3894      3895
      3893      3891      3894      3896      3893      3891      3894      3897
      3894      3897      3900      3901      3894      3897      3900      3902
      3894      3897      3900      3903      3895      3894      3897      3898
      3895      3894      3897      3899      3895      3894      3897      3900
      3896      3894      3897      3898      3896      3894      3897      3899
      3896      3894      3897      3900      3897      3900      3903      3904
      3897      3900      3903      3905      3897      3900      3903      3906
      3898      3897      3900      3901      3898      3897      3900      3902
      3898      3897      3900      3903      3899      3897      3900      3901
      3899      3897      3900      3902      3899      3897      3900      3903
      3900      3903      3906      3907      3900      3903      3906      3908
      3900      3903      3906      3909      3901      3900      3903      3904
      3901      3900      3903      3905      3901      3900      3903      3906
      3902      3900      3903      3904      3902      3900      3903      3905
      3902      3900      3903      3906      3903      3906      3909      3910
      3903      3906      3909      3911      3904      3903      3906      3907
      3904      3903      3906      3908      3904      3903      3906      3909
      3905      3903      3906      3907      3905      3903      3906      3908
      3905      3903      3906      3909      3906      3909      3911      3912
      3906      3909      3911      3913      3907      3906      3909      3910
      3907      3906      3909      3911      3908      3906      3909      3910
      3908      3906      3909      3911      3909      3911      3913      3914
      3909      3911      3913      3915      3909      3911      3913      3916
      3910      3909      3911      3912      3910      3909      3911      3913
      3911      3913      3916      3917      3911      3913      3916      3918
      3911      3913      3916      3919      3912      3911      3913      3914
      3912      3911      3913      3915      3912      3911      3913      3916
      3913      3916      3919      3920      3913      3916      3919      3921
      3913      3916      3919      3922      3914      3913      3916      3917
      3914      3913      3916      3918      3914      3913      3916      3919
      3915      3913      3916      3917      3915      3913      3916      3918
      3915      3913      3916      3919      3916      3919      3922      3923
      3916      3919      3922      3924      3916      3919      3922      3925
      3917      3916      3919      3920      3917      3916      3919      3921
      3917      3916      3919      3922      3918      3916      3919      3920
      3918      3916      3919      3921      3918      3916      3919      3922
      3919      3922      3925      3926      3919      3922      3925      3927
      3919      3922      3925      3928      3920      3919      3922      3923
      3920      3919      3922      3924      3920      3919      3922      3925
      3921      3919      3922      3923      3921      3919      3922      3924
      3921      3919      3922      3925      3922      3925      3928      3929
      3922      3925      3928      3930      3922      3925      3928      3931
      3923      3922      3925      3926      3923      3922      3925      3927
      3923      3922      3925      3928      3924      3922      3925      3926
      3924      3922      3925      3927      3924      3922      3925      3928
      3925      3928      3931      3932      3925      3928      3931      3933
      3925      3928      3931      3934      3926      3925      3928      3929
      3926      3925      3928      3930      3926      3925      3928      3931
      3927      3925      3928      3929      3927      3925      3928      3930
      3927      3925      3928      3931      3928      3931      3934      3935
      3928      3931      3934      3936      3928      3931      3934      3937
      3929      3928      3931      3932      3929      3928      3931      3933
      3929      3928      3931      3934      3930      3928      3931      3932
      3930      3928      3931      3933      3930      3928      3931      3934
      3932      3931      3934      3935      3932      3931      3934      3936
      3932      3931      3934      3937      3933      3931      3934      3935
      3933      3931      3934      3936      3933      3931      3934      3937
      3938      3941      3944      3945      3938      3941      3944      3946
      3938      3941      3944      3947      3939      3938      3941      3942
      3939      3938      3941      3943      3939      3938      3941      3944
      3940      3938      3941      3942      3940      3938      3941      3943
      3940      3938      3941      3944      3941      3944      3947      3948
      3941      3944      3947      3949      3941      3944      3947      3950
      3942      3941      3944      3945      3942      3941      3944      3946
      3942      3941      3944      3947      3943      3941      3944      3945
      3943      3941      3944      3946      3943      3941      3944      3947
      3944      3947      3950      3951      3944      3947      3950      3952
      3944      3947      3950      3953      3945      3944      3947      3948
      3945      3944      3947      3949      3945      3944      3947      3950
      3946      3944      3947      3948      3946      3944      3947      3949
      3946      3944      3947      3950      3947      3950      3953      3954
      3947      3950      3953      3955      3947      3950      3953      3956
      3948      3947      3950      3951      3948      3947      3950      3952
      3948      3947      3950      3953      3949      3947      3950      3951
      3949      3947      3950      3952      3949      3947      3950      3953
      3950      3953      3956      3957      3950      3953      3956      3958
      3950      3953      3956      3959      3951      3950      3953      3954
      3951      3950      3953      3955      3951      3950      3953      3956
      3952      3950      3953      3954      3952      3950      3953      3955
      3952      3950      3953      3956      3953      3956      3959      3960
      3953      3956      3959      3961      3953      3956      3959      3962
      3954      3953      3956      3957      3954      3953      3956      3958
      3954      3953      3956      3959      3955      3953      3956      3957
      3955      3953      3956      3958      3955      3953      3956      3959
      3956      3959      3962      3963      3956      3959      3962      3964
      3956      3959      3962      3965      3957      3956      3959      3960
      3957      3956      3959      3961      3957      3956      3959      3962
      3958      3956      3959      3960      3958      3956      3959      3961
      3958      3956      3959      3962      3959      3962      3965      3966
      3959      3962      3965      3967      3959      3962      3965      3968
      3960      3959      3962      3963      3960      3959      3962      3964
      3960      3959      3962      3965      3961      3959      3962      3963
      3961      3959      3962      3964      3961      3959      3962      3965
      3962      3965      3968      3969      3962      3965      3968      3970
      3962      3965      3968      3971      3963      3962      3965      3966
      3963      3962      3965      3967      3963      3962      3965      3968
      3964      3962      3965      3966      3964      3962      3965      3967
      3964      3962      3965      3968      3965      3968      3971      3972
      3965      3968      3971      3973      3965      3968      3971      3974
      3966      3965      3968      3969      3966      3965      3968      3970
      3966      3965      3968      3971      3967      3965      3968      3969
      3967      3965      3968      3970      3967      3965      3968      3971
      3968      3971      3974      3975      3968      3971      3974      3976
      3968      3971      3974      3977      3969      3968      3971      3972
      3969      3968      3971      3973      3969      3968      3971      3974
      3970      3968      3971      3972      3970      3968      3971      3973
      3970      3968      3971      3974      3971      3974      3977      3978
      3971      3974      3977      3979      3971      3974      3977      3980
      3972      3971      3974      3975      3972      3971      3974      3976
      3972      3971      3974      3977      3973      3971      3974      3975
      3973      3971      3974      3976      3973      3971      3974      3977
      3975      3974      3977      3978      3975      3974      3977      3979
      3975      3974      3977      3980      3976      3974      3977      3978
      3976      3974      3977      3979      3976      3974      3977      3980
      3981      3982      3997      3998      3981      3982      3997      3999
      3981      3982      3997      4003      3982      3981      3985      3986
      3982      3981      3985      3987      3982      3981      3985      3988
      3982      3981      3989      3990      3982      3981      3989      3991
      3982      3981      3989      3992      3982      3981      3993      3994
      3982      3981      3993      3995      3982      3981      3993      3996
      3982      3997      4003      4000      3983      3982      3981      3985
      3983      3982      3981      3989      3983      3982      3981      3993
      3983      3982      3997      3998      3983      3982      3997      3999
      3983      3982      3997      4003      3984      3982      3981      3985
      3984      3982      3981      3989      3984      3982      3981      3993
      3984      3982      3997      3998      3984      3982      3997      3999
      3984      3982      3997      4003      3985      3981      3982      3997
      3985      3981      3989      3990      3985      3981      3989      3991
      3985      3981      3989      3992      3985      3981      3993      3994
      3985      3981      3993      3995      3985      3981      3993      3996
      3986      3985      3981      3989      3986      3985      3981      3993
      3987      3985      3981      3989      3987      3985      3981      3993
      3988      3985      3981      3989      3988      3985      3981      3993
      3989      3981      3982      3997      3989      3981      3993      3994
      3989      3981      3993      3995      3989      3981      3993      3996
      3990      3989      3981      3993      3991      3989      3981      3993
      3992      3989      3981      3993      3993      3981      3982      3997
      3997      4003      4000      4001      3997      4003      4000      4002
      3997      4003      4000      4004      3998      3997      4003      4000
      3999      3997      4003      4000      4000      4004      4005      4006
      4000      4004      4005      4007      4000      4004      4005      4008
      4001      4000      4004      4005      4002      4000      4004      4005
      4003      4000      4004      4005      4004      4005      4008      4009
      4004      4005      4008      4010      4004      4005      4008      4016
      4005      4008      4010      4011      4005      4008      4016      4017
      4005      4008      4016      4018      4005      4008      4016      4019
      4006      4005      4008      4009      4006      4005      4008      4010
      4006      4005      4008      4016      4007      4005      4008      4009
      4007      4005      4008      4010      4007      4005      4008      4016
      4008      4010      4011      4012      4008      4010      4011      4013
      4008      4016      4019      4020      4009      4008      4010      4011
      4009      4008      4016      4017      4009      4008      4016      4018
      4009      4008      4016      4019      4010      4008      4016      4017
      4010      4008      4016      4018      4010      4008      4016      4019
      4010      4011      4013      4014      4010      4011      4013      4015
      4010      4011      4013      4025      4011      4010      4008      4016
      4011      4013      4025      4026      4011      4013      4025      4027
      4011      4013      4025      4028      4012      4011      4013      4014
      4012      4011      4013      4015      4012      4011      4013      4025
      4013      4025      4028      4029      4013      4025      4028      4030
      4013      4025      4028      4031      4014      4013      4025      4026
      4014      4013      4025      4027      4014      4013      4025      4028
      4015      4013      4025      4026      4015      4013      4025      4027
      4015      4013      4025      4028      4016      4019      4020      4021
      4016      4019      4020      4022      4017      4016      4019      4020
      4018      4016      4019      4020      4019      4020      4022      4023
      4019      4020      4022      4024      4019      4020      4022      4072
      4020      4022      4072      4073      4020      4022      4072      4074
      4020      4022      4072      4075      4021      4020      4022      4023
      4021      4020      4022      4024      4021      4020      4022      4072
      4022      4072      4075      4076      4022      4072      4075      4077
      4022      4072      4075      4078      4023      4022      4072      4073
      4023      4022      4072      4074      4023      4022      4072      4075
      4024      4022      4072      4073      4024      4022      4072      4074
      4024      4022      4072      4075      4025      4028      4031      4032
      4025      4028      4031      4033      4025      4028      4031      4034
      4026      4025      4028      4029      4026      4025      4028      4030
      4026      4025      4028      4031      4027      4025      4028      4029
      4027      4025      4028      4030      4027      4025      4028      4031
      4028      4031      4034      4035      4028      4031      4034      4036
      4028      4031      4034      4037      4029      4028      4031      4032
      4029      4028      4031      4033      4029      4028      4031      4034
      4030      4028      4031      4032      4030      4028      4031      4033
      4030      4028      4031      4034      4031      4034      4037      4038
      4031      4034      4037      4039      4031      4034      4037      4040
      4032      4031      4034      4035      4032      4031      4034      4036
      4032      4031      4034      4037      4033      4031      4034      4035
      4033      4031      4034      4036      4033      4031      4034      4037
      4034      4037      4040      4041      4034      4037      4040      4042
      4034      4037      4040      4043      4035      4034      4037      4038
      4035      4034      4037      4039      4035      4034      4037      4040
      4036      4034      4037      4038      4036      4034      4037      4039
      4036      4034      4037      4040      4037      4040      4043      4044
      4037      4040      4043      4045      4038      4037      4040      4041
      4038      4037      4040      4042      4038      4037      4040      4043
      4039      4037      4040      4041      4039      4037      4040      4042
      4039      4037      4040      4043      4040      4043      4045      4046
      4040      4043      4045      4047      4041      4040      4043      4044
      4041      4040      4043      4045      4042      4040      4043      4044
      4042      4040      4043      4045      4043      4045      4047      4048
      4043      4045      4047      4049      4043      4045      4047      4050
      4044      4043      4045      4046      4044      4043      4045      4047
      4045      4047      4050      4051      4045      4047      4050      4052
      4045      4047      4050      4053      4046      4045      4047      4048
      4046      4045      4047      4049      4046      4045      4047      4050
      4047      4050      4053      4054      4047      4050      4053      4055
      4047      4050      4053      4056      4048      4047      4050      4051
      4048      4047      4050      4052      4048      4047      4050      4053
      4049      4047      4050      4051      4049      4047      4050      4052
      4049      4047      4050      4053      4050      4053      4056      4057
      4050      4053      4056      4058      4050      4053      4056      4059
      4051      4050      4053      4054      4051      4050      4053      4055
      4051      4050      4053      4056      4052      4050      4053      4054
      4052      4050      4053      4055      4052      4050      4053      4056
      4053      4056      4059      4060      4053      4056      4059      4061
      4053      4056      4059      4062      4054      4053      4056      4057
      4054      4053      4056      4058      4054      4053      4056      4059
      4055      4053      4056      4057      4055      4053      4056      4058
      4055      4053      4056      4059      4056      4059      4062      4063
      4056      4059      4062      4064      4056      4059      4062      4065
      4057      4056      4059      4060      4057      4056      4059      4061
      4057      4056      4059      4062      4058      4056      4059      4060
      4058      4056      4059      4061      4058      4056      4059      4062
      4059      4062      4065      4066      4059      4062      4065      4067
      4059      4062      4065      4068      4060      4059      4062      4063
      4060      4059      4062      4064      4060      4059      4062      4065
      4061      4059      4062      4063      4061      4059      4062      4064
      4061      4059      4062      4065      4062      4065      4068      4069
      4062      4065      4068      4070      4062      4065      4068      4071
      4063      4062      4065      4066      4063      4062      4065      4067
      4063      4062      4065      4068      4064      4062      4065      4066
      4064      4062      4065      4067      4064      4062      4065      4068
      4066      4065      4068      4069      4066      4065      4068      4070
      4066      4065      4068      4071      4067      4065      4068      4069
      4067      4065      4068      4070      4067      4065      4068      4071
      4072      4075      4078      4079      4072      4075      4078      4080
      4072      4075      4078      4081      4073      4072      4075      4076
      4073      4072      4075      4077      4073      4072      4075      4078
      4074      4072      4075      4076      4074      4072      4075      4077
      4074      4072      4075      4078      4075      4078      4081      4082
      4075      4078      4081      4083      4075      4078      4081      4084
      4076      4075      4078      4079      4076      4075      4078      4080
      4076      4075      4078      4081      4077      4075      4078      4079
      4077      4075      4078      4080      4077      4075      4078      4081
      4078      4081      4084      4085      4078      4081      4084      4086
      4078      4081      4084      4087      4079      4078      4081      4082
      4079      4078      4081      4083      4079      4078      4081      4084
      4080      4078      4081      4082      4080      4078      4081      4083
      4080      4078      4081      4084      4081      4084      4087      4088
      4081      4084      4087      4089      4081      4084      4087      4090
      4082      4081      4084      4085      4082      4081      4084      4086
      4082      4081      4084      4087      4083      4081      4084      4085
      4083      4081      4084      4086      4083      4081      4084      4087
      4084      4087      4090      4091      4084      4087      4090      4092
      4084      4087      4090      4093      4085      4084      4087      4088
      4085      4084      4087      4089      4085      4084      4087      4090
      4086      4084      4087      4088      4086      4084      4087      4089
      4086      4084      4087      4090      4087      4090      4093      4094
      4087      4090      4093      4095      4087      4090      4093      4096
      4088      4087      4090      4091      4088      4087      4090      4092
      4088      4087      4090      4093      4089      4087      4090      4091
      4089      4087      4090      4092      4089      4087      4090      4093
      4090      4093      4096      4097      4090      4093      4096      4098
      4090      4093      4096      4099      4091      4090      4093      4094
      4091      4090      4093      4095      4091      4090      4093      4096
      4092      4090      4093      4094      4092      4090      4093      4095
      4092      4090      4093      4096      4093      4096      4099      4100
      4093      4096      4099      4101      4093      4096      4099      4102
      4094      4093      4096      4097      4094      4093      4096      4098
      4094      4093      4096      4099      4095      4093      4096      4097
      4095      4093      4096      4098      4095      4093      4096      4099
      4096      4099      4102      4103      4096      4099      4102      4104
      4096      4099      4102      4105      4097      4096      4099      4100
      4097      4096      4099      4101      4097      4096      4099      4102
      4098      4096      4099      4100      4098      4096      4099      4101
      4098      4096      4099      4102      4099      4102      4105      4106
      4099      4102      4105      4107      4099      4102      4105      4108
      4100      4099      4102      4103      4100      4099      4102      4104
      4100      4099      4102      4105      4101      4099      4102      4103
      4101      4099      4102      4104      4101      4099      4102      4105
      4102      4105      4108      4109      4102      4105      4108      4110
      4102      4105      4108      4111      4103      4102      4105      4106
      4103      4102      4105      4107      4103      4102      4105      4108
      4104      4102      4105      4106      4104      4102      4105      4107
      4104      4102      4105      4108      4105      4108      4111      4112
      4105      4108      4111      4113      4105      4108      4111      4114
      4106      4105      4108      4109      4106      4105      4108      4110
      4106      4105      4108      4111      4107      4105      4108      4109
      4107      4105      4108      4110      4107      4105      4108      4111
      4109      4108      4111      4112      4109      4108      4111      4113
      4109      4108      4111      4114      4110      4108      4111      4112
      4110      4108      4111      4113      4110      4108      4111      4114
      4115      4119      4121      4122      4115      4119      4121      4123
      4115      4119      4124      4125      4115      4119      4124      4126
      4115      4119      4124      4130      4116      4115      4119      4120
      4116      4115      4119      4121      4116      4115      4119      4124
      4117      4115      4119      4120      4117      4115      4119      4121
      4117      4115      4119      4124      4118      4115      4119      4120
      4118      4115      4119      4121      4118      4115      4119      4124
      4119      4124      4130      4127      4120      4119      4121      4122
      4120      4119      4121      4123      4120      4119      4124      4125
      4120      4119      4124      4126      4120      4119      4124      4130
      4121      4119      4124      4125      4121      4119      4124      4126
      4121      4119      4124      4130      4122      4121      4119      4124
      4123      4121      4119      4124      4124      4130      4127      4128
      4124      4130      4127      4129      4124      4130      4127      4131
      4125      4124      4130      4127      4126      4124      4130      4127
      4127      4131      4132      4133      4127      4131      4132      4134
      4127      4131      4132      4135      4128      4127      4131      4132
      4129      4127      4131      4132      4130      4127      4131      4132
      4131      4132      4135      4136      4131      4132      4135      4137
      4131      4132      4135      4143      4132      4135      4137      4138
      4132      4135      4143      4144      4132      4135      4143      4145
      4132      4135      4143      4146      4133      4132      4135      4136
      4133      4132      4135      4137      4133      4132      4135      4143
      4134      4132      4135      4136      4134      4132      4135      4137
      4134      4132      4135      4143      4135      4137      4138      4139
      4135      4137      4138      4140      4135      4143      4146      4147
      4136      4135      4137      4138      4136      4135      4143      4144
      4136      4135      4143      4145      4136      4135      4143      4146
      4137      4135      4143      4144      4137      4135      4143      4145
      4137      4135      4143      4146      4137      4138      4140      4141
      4137      4138      4140      4142      4137      4138      4140      4152
      4138      4137      4135      4143      4138      4140      4152      4153
      4138      4140      4152      4154      4138      4140      4152      4155
      4139      4138      4140      4141      4139      4138      4140      4142
      4139      4138      4140      4152      4140      4152      4155      4156
      4140      4152      4155      4157      4140      4152      4155      4158
      4141      4140      4152      4153      4141      4140      4152      4154
      4141      4140      4152      4155      4142      4140      4152      4153
      4142      4140      4152      4154      4142      4140      4152      4155
      4143      4146      4147      4148      4143      4146      4147      4149
      4144      4143      4146      4147      4145      4143      4146      4147
      4146      4147      4149      4150      4146      4147      4149      4151
      4146      4147      4149      4199      4147      4149      4199      4200
      4147      4149      4199      4201      4147      4149      4199      4202
      4148      4147      4149      4150      4148      4147      4149      4151
      4148      4147      4149      4199      4149      4199      4202      4203
      4149      4199      4202      4204      4149      4199      4202      4205
      4150      4149      4199      4200      4150      4149      4199      4201
      4150      4149      4199      4202      4151      4149      4199      4200
      4151      4149      4199      4201      4151      4149      4199      4202
      4152      4155      4158      4159      4152      4155      4158      4160
      4152      4155      4158      4161      4153      4152      4155      4156
      4153      4152      4155      4157      4153      4152      4155      4158
      4154      4152      4155      4156      4154      4152      4155      4157
      4154      4152      4155      4158      4155      4158      4161      4162
      4155      4158      4161      4163      4155      4158      4161      4164
      4156      4155      4158      4159      4156      4155      4158      4160
      4156      4155      4158      4161      4157      4155      4158      4159
      4157      4155      4158      4160      4157      4155      4158      4161
      4158      4161      4164      4165      4158      4161      4164      4166
      4158      4161      4164      4167      4159      4158      4161      4162
      4159      4158      4161      4163      4159      4158      4161      4164
      4160      4158      4161      4162      4160      4158      4161      4163
      4160      4158      4161      4164      4161      4164      4167      4168
      4161      4164      4167      4169      4161      4164      4167      4170
      4162      4161      4164      4165      4162      4161      4164      4166
      4162      4161      4164      4167      4163      4161      4164      4165
      4163      4161      4164      4166      4163      4161      4164      4167
      4164      4167      4170      4171      4164      4167      4170      4172
      4165      4164      4167      4168      4165      4164      4167      4169
      4165      4164      4167      4170      4166      4164      4167      4168
      4166      4164      4167      4169      4166      4164      4167      4170
      4167      4170      4172      4173      4167      4170      4172      4174
      4168      4167      4170      4171      4168      4167      4170      4172
      4169      4167      4170      4171      4169      4167      4170      4172
      4170      4172      4174      4175      4170      4172      4174      4176
      4170      4172      4174      4177      4171      4170      4172      4173
      4171      4170      4172      4174      4172      4174      4177      4178
      4172      4174      4177      4179      4172      4174      4177      4180
      4173      4172      4174      4175      4173      4172      4174      4176
      4173      4172      4174      4177      4174      4177      4180      4181
      4174      4177      4180      4182      4174      4177      4180      4183
      4175      4174      4177      4178      4175      4174      4177      4179
      4175      4174      4177      4180      4176      4174      4177      4178
      4176      4174      4177      4179      4176      4174      4177      4180
      4177      4180      4183      4184      4177      4180      4183      4185
      4177      4180      4183      4186      4178      4177      4180      4181
      4178      4177      4180      4182      4178      4177      4180      4183
      4179      4177      4180      4181      4179      4177      4180      4182
      4179      4177      4180      4183      4180      4183      4186      4187
      4180      4183      4186      4188      4180      4183      4186      4189
      4181      4180      4183      4184      4181      4180      4183      4185
      4181      4180      4183      4186      4182      4180      4183      4184
      4182      4180      4183      4185      4182      4180      4183      4186
      4183      4186      4189      4190      4183      4186      4189      4191
      4183      4186      4189      4192      4184      4183      4186      4187
      4184      4183      4186      4188      4184      4183      4186      4189
      4185      4183      4186      4187      4185      4183      4186      4188
      4185      4183      4186      4189      4186      4189      4192      4193
      4186      4189      4192      4194      4186      4189      4192      4195
      4187      4186      4189      4190      4187      4186      4189      4191
      4187      4186      4189      4192      4188      4186      4189      4190
      4188      4186      4189      4191      4188      4186      4189      4192
      4189      4192      4195      4196      4189      4192      4195      4197
      4189      4192      4195      4198      4190      4189      4192      4193
      4190      4189      4192      4194      4190      4189      4192      4195
      4191      4189      4192      4193      4191      4189      4192      4194
      4191      4189      4192      4195      4193      4192      4195      4196
      4193      4192      4195      4197      4193      4192      4195      4198
      4194      4192      4195      4196      4194      4192      4195      4197
      4194      4192      4195      4198      4199      4202      4205      4206
      4199      4202      4205      4207      4199      4202      4205      4208
      4200      4199      4202      4203      4200      4199      4202      4204
      4200      4199      4202      4205      4201      4199      4202      4203
      4201      4199      4202      4204      4201      4199      4202      4205
      4202      4205      4208      4209      4202      4205      4208      4210
      4202      4205      4208      4211      4203      4202      4205      4206
      4203      4202      4205      4207      4203      4202      4205      4208
      4204      4202      4205      4206      4204      4202      4205      4207
      4204      4202      4205      4208      4205      4208      4211      4212
      4205      4208      4211      4213      4205      4208      4211      4214
      4206      4205      4208      4209      4206      4205      4208      4210
      4206      4205      4208      4211      4207      4205      4208      4209
      4207      4205      4208      4210      4207      4205      4208      4211
      4208      4211      4214      4215      4208      4211      4214      4216
      4208      4211      4214      4217      4209      4208      4211      4212
      4209      4208      4211      4213      4209      4208      4211      4214
      4210      4208      4211      4212      4210      4208      4211      4213
      4210      4208      4211      4214      4211      4214      4217      4218
      4211      4214      4217      4219      4211      4214      4217      4220
      4212      4211      4214      4215      4212      4211      4214      4216
      4212      4211      4214      4217      4213      4211      4214      4215
      4213      4211      4214      4216      4213      4211      4214      4217
      4214      4217      4220      4221      4214      4217      4220      4222
      4214      4217      4220      4223      4215      4214      4217      4218
      4215      4214      4217      4219      4215      4214      4217      4220
      4216      4214      4217      4218      4216      4214      4217      4219
      4216      4214      4217      4220      4217      4220      4223      4224
      4217      4220      4223      4225      4217      4220      4223      4226
      4218      4217      4220      4221      4218      4217      4220      4222
      4218      4217      4220      4223      4219      4217      4220      4221
      4219      4217      4220      4222      4219      4217      4220      4223
      4220      4223      4226      4227      4220      4223      4226      4228
      4220      4223      4226      4229      4221      4220      4223      4224
      4221      4220      4223      4225      4221      4220      4223      4226
      4222      4220      4223      4224      4222      4220      4223      4225
      4222      4220      4223      4226      4223      4226      4229      4230
      4223      4226      4229      4231      4223      4226      4229      4232
      4224      4223      4226      4227      4224      4223      4226      4228
      4224      4223      4226      4229      4225      4223      4226      4227
      4225      4223      4226      4228      4225      4223      4226      4229
      4226      4229      4232      4233      4226      4229      4232      4234
      4226      4229      4232      4235      4227      4226      4229      4230
      4227      4226      4229      4231      4227      4226      4229      4232
      4228      4226      4229      4230      4228      4226      4229      4231
      4228      4226      4229      4232      4229      4232      4235      4236
      4229      4232      4235      4237      4229      4232      4235      4238
      4230      4229      4232      4233      4230      4229      4232      4234
      4230      4229      4232      4235      4231      4229      4232      4233
      4231      4229      4232      4234      4231      4229      4232      4235
      4232      4235      4238      4239      4232      4235      4238      4240
      4232      4235      4238      4241      4233      4232      4235      4236
      4233      4232      4235      4237      4233      4232      4235      4238
      4234      4232      4235      4236      4234      4232      4235      4237
      4234      4232      4235      4238      4236      4235      4238      4239
      4236      4235      4238      4240      4236      4235      4238      4241
      4237      4235      4238      4239      4237      4235      4238      4240
      4237      4235      4238      4241      4242      4243      4258      4259
      4242      4243      4258      4260      4242      4243      4258      4264
      4243      4242      4246      4247      4243      4242      4246      4248
      4243      4242      4246      4249      4243      4242      4250      4251
      4243      4242      4250      4252      4243      4242      4250      4253
      4243      4242      4254      4255      4243      4242      4254      4256
      4243      4242      4254      4257      4243      4258      4264      4261
      4244      4243      4242      4246      4244      4243      4242      4250
      4244      4243      4242      4254      4244      4243      4258      4259
      4244      4243      4258      4260      4244      4243      4258      4264
      4245      4243      4242      4246      4245      4243      4242      4250
      4245      4243      4242      4254      4245      4243      4258      4259
      4245      4243      4258      4260      4245      4243      4258      4264
      4246      4242      4243      4258      4246      4242      4250      4251
      4246      4242      4250      4252      4246      4242      4250      4253
      4246      4242      4254      4255      4246      4242      4254      4256
      4246      4242      4254      4257      4247      4246      4242      4250
      4247      4246      4242      4254      4248      4246      4242      4250
      4248      4246      4242      4254      4249      4246      4242      4250
      4249      4246      4242      4254      4250      4242      4243      4258
      4250      4242      4254      4255      4250      4242      4254      4256
      4250      4242      4254      4257      4251      4250      4242      4254
      4252      4250      4242      4254      4253      4250      4242      4254
      4254      4242      4243      4258      4258      4264      4261      4262
      4258      4264      4261      4263      4258      4264      4261      4265
      4259      4258      4264      4261      4260      4258      4264      4261
      4261      4265      4266      4267      4261      4265      4266      4268
      4261      4265      4266      4269      4262      4261      4265      4266
      4263      4261      4265      4266      4264      4261      4265      4266
      4265      4266      4269      4270      4265      4266      4269      4271
      4265      4266      4269      4277      4266      4269      4271      4272
      4266      4269      4277      4278      4266      4269      4277      4279
      4266      4269      4277      4280      4267      4266      4269      4270
      4267      4266      4269      4271      4267      4266      4269      4277
      4268      4266      4269      4270      4268      4266      4269      4271
      4268      4266      4269      4277      4269      4271      4272      4273
      4269      4271      4272      4274      4269      4277      4280      4281
      4270      4269      4271      4272      4270      4269      4277      4278
      4270      4269      4277      4279      4270      4269      4277      4280
      4271      4269      4277      4278      4271      4269      4277      4279
      4271      4269      4277      4280      4271      4272      4274      4275
      4271      4272      4274      4276      4271      4272      4274      4286
      4272      4271      4269      4277      4272      4274      4286      4287
      4272      4274      4286      4288      4272      4274      4286      4289
      4273      4272      4274      4275      4273      4272      4274      4276
      4273      4272      4274      4286      4274      4286      4289      4290
      4274      4286      4289      4291      4274      4286      4289      4292
      4275      4274      4286      4287      4275      4274      4286      4288
      4275      4274      4286      4289      4276      4274      4286      4287
      4276      4274      4286      4288      4276      4274      4286      4289
      4277      4280      4281      4282      4277      4280      4281      4283
      4278      4277      4280      4281      4279      4277      4280      4281
      4280      4281      4283      4284      4280      4281      4283      4285
      4280      4281      4283      4333      4281      4283      4333      4334
      4281      4283      4333      4335      4281      4283      4333      4336
      4282      4281      4283      4284      4282      4281      4283      4285
      4282      4281      4283      4333      4283      4333      4336      4337
      4283      4333      4336      4338      4283      4333      4336      4339
      4284      4283      4333      4334      4284      4283      4333      4335
      4284      4283      4333      4336      4285      4283      4333      4334
      4285      4283      4333      4335      4285      4283      4333      4336
      4286      4289      4292      4293      4286      4289      4292      4294
      4286      4289      4292      4295      4287      4286      4289      4290
      4287      4286      4289      4291      4287      4286      4289      4292
      4288      4286      4289      4290      4288      4286      4289      4291
      4288      4286      4289      4292      4289      4292      4295      4296
      4289      4292      4295      4297      4289      4292      4295      4298
      4290      4289      4292      4293      4290      4289      4292      4294
      4290      4289      4292      4295      4291      4289      4292      4293
      4291      4289      4292      4294      4291      4289      4292      4295
      4292      4295      4298      4299      4292      4295      4298      4300
      4292      4295      4298      4301      4293      4292      4295      4296
      4293      4292      4295      4297      4293      4292      4295      4298
      4294      4292      4295      4296      4294      4292      4295      4297
      4294      4292      4295      4298      4295      4298      4301      4302
      4295      4298      4301      4303      4295      4298      4301      4304
      4296      4295      4298      4299      4296      4295      4298      4300
      4296      4295      4298      4301      4297      4295      4298      4299
      4297      4295      4298      4300      4297      4295      4298      4301
      4298      4301      4304      4305      4298      4301      4304      4306
      4299      4298      4301      4302      4299      4298      4301      4303
      4299      4298      4301      4304      4300      4298      4301      4302
      4300      4298      4301      4303      4300      4298      4301      4304
      4301      4304      4306      4307      4301      4304      4306      4308
      4302      4301      4304      4305      4302      4301      4304      4306
      4303      4301      4304      4305      4303      4301      4304      4306
      4304      4306      4308      4309      4304      4306      4308      4310
      4304      4306      4308      4311      4305      4304      4306      4307
      4305      4304      4306      4308      4306      4308      4311      4312
      4306      4308      4311      4313      4306      4308      4311      4314
      4307      4306      4308      4309      4307      4306      4308      4310
      4307      4306      4308      4311      4308      4311      4314      4315
      4308      4311      4314      4316      4308      4311      4314      4317
      4309      4308      4311      4312      4309      4308      4311      4313
      4309      4308      4311      4314      4310      4308      4311      4312
      4310      4308      4311      4313      4310      4308      4311      4314
      4311      4314      4317      4318      4311      4314      4317      4319
      4311      4314      4317      4320      4312      4311      4314      4315
      4312      4311      4314      4316      4312      4311      4314      4317
      4313      4311      4314      4315      4313      4311      4314      4316
      4313      4311      4314      4317      4314      4317      4320      4321
      4314      4317      4320      4322      4314      4317      4320      4323
      4315      4314      4317      4318      4315      4314      4317      4319
      4315      4314      4317      4320      4316      4314      4317      4318
      4316      4314      4317      4319      4316      4314      4317      4320
      4317      4320      4323      4324      4317      4320      4323      4325
      4317      4320      4323      4326      4318      4317      4320      4321
      4318      4317      4320      4322      4318      4317      4320      4323
      4319      4317      4320      4321      4319      4317      4320      4322
      4319      4317      4320      4323      4320      4323      4326      4327
      4320      4323      4326      4328      4320      4323      4326      4329
      4321      4320      4323      4324      4321      4320      4323      4325
      4321      4320      4323      4326      4322      4320      4323      4324
      4322      4320      4323      4325      4322      4320      4323      4326
      4323      4326      4329      4330      4323      4326      4329      4331
      4323      4326      4329      4332      4324      4323      4326      4327
      4324      4323      4326      4328      4324      4323      4326      4329
      4325      4323      4326      4327      4325      4323      4326      4328
      4325      4323      4326      4329      4327      4326      4329      4330
      4327      4326      4329      4331      4327      4326      4329      4332
      4328      4326      4329      4330      4328      4326      4329      4331
      4328      4326      4329      4332      4333      4336      4339      4340
      4333      4336      4339      4341      4333      4336      4339      4342
      4334      4333      4336      4337      4334      4333      4336      4338
      4334      4333      4336      4339      4335      4333      4336      4337
      4335      4333      4336      4338      4335      4333      4336      4339
      4336      4339      4342      4343      4336      4339      4342      4344
      4336      4339      4342      4345      4337      4336      4339      4340
      4337      4336      4339      4341      4337      4336      4339      4342
      4338      4336      4339      4340      4338      4336      4339      4341
      4338      4336      4339      4342      4339      4342      4345      4346
      4339      4342      4345      4347      4339      4342      4345      4348
      4340      4339      4342      4343      4340      4339      4342      4344
      4340      4339      4342      4345      4341      4339      4342      4343
      4341      4339      4342      4344      4341      4339      4342      4345
      4342      4345      4348      4349      4342      4345      4348      4350
      4342      4345      4348      4351      4343      4342      4345      4346
      4343      4342      4345      4347      4343      4342      4345      4348
      4344      4342      4345      4346      4344      4342      4345      4347
      4344      4342      4345      4348      4345      4348      4351      4352
      4345      4348      4351      4353      4345      4348      4351      4354
      4346      4345      4348      4349      4346      4345      4348      4350
      4346      4345      4348      4351      4347      4345      4348      4349
      4347      4345      4348      4350      4347      4345      4348      4351
      4348      4351      4354      4355      4348      4351      4354      4356
      4348      4351      4354      4357      4349      4348      4351      4352
      4349      4348      4351      4353      4349      4348      4351      4354
      4350      4348      4351      4352      4350      4348      4351      4353
      4350      4348      4351      4354      4351      4354      4357      4358
      4351      4354      4357      4359      4351      4354      4357      4360
      4352      4351      4354      4355      4352      4351      4354      4356
      4352      4351      4354      4357      4353      4351      4354      4355
      4353      4351      4354      4356      4353      4351      4354      4357
      4354      4357      4360      4361      4354      4357      4360      4362
      4354      4357      4360      4363      4355      4354      4357      4358
      4355      4354      4357      4359      4355      4354      4357      4360
      4356      4354      4357      4358      4356      4354      4357      4359
      4356      4354      4357      4360      4357      4360      4363      4364
      4357      4360      4363      4365      4357      4360      4363      4366
      4358      4357      4360      4361      4358      4357      4360      4362
      4358      4357      4360      4363      4359      4357      4360      4361
      4359      4357      4360      4362      4359      4357      4360      4363
      4360      4363      4366      4367      4360      4363      4366      4368
      4360      4363      4366      4369      4361      4360      4363      4364
      4361      4360      4363      4365      4361      4360      4363      4366
      4362      4360      4363      4364      4362      4360      4363      4365
      4362      4360      4363      4366      4363      4366      4369      4370
      4363      4366      4369      4371      4363      4366      4369      4372
      4364      4363      4366      4367      4364      4363      4366      4368
      4364      4363      4366      4369      4365      4363      4366      4367
      4365      4363      4366      4368      4365      4363      4366      4369
      4366      4369      4372      4373      4366      4369      4372      4374
      4366      4369      4372      4375      4367      4366      4369      4370
      4367      4366      4369      4371      4367      4366      4369      4372
      4368      4366      4369      4370      4368      4366      4369      4371
      4368      4366      4369      4372      4370      4369      4372      4373
      4370      4369      4372      4374      4370      4369      4372      4375
      4371      4369      4372      4373      4371      4369      4372      4374
      4371      4369      4372      4375      4376      4377      4392      4393
      4376      4377      4392      4394      4376      4377      4392      4398
      4377      4376      4380      4381      4377      4376      4380      4382
      4377      4376      4380      4383      4377      4376      4384      4385
      4377      4376      4384      4386      4377      4376      4384      4387
      4377      4376      4388      4389      4377      4376      4388      4390
      4377      4376      4388      4391      4377      4392      4398      4395
      4378      4377      4376      4380      4378      4377      4376      4384
      4378      4377      4376      4388      4378      4377      4392      4393
      4378      4377      4392      4394      4378      4377      4392      4398
      4379      4377      4376      4380      4379      4377      4376      4384
      4379      4377      4376      4388      4379      4377      4392      4393
      4379      4377      4392      4394      4379      4377      4392      4398
      4380      4376      4377      4392      4380      4376      4384      4385
      4380      4376      4384      4386      4380      4376      4384      4387
      4380      4376      4388      4389      4380      4376      4388      4390
      4380      4376      4388      4391      4381      4380      4376      4384
      4381      4380      4376      4388      4382      4380      4376      4384
      4382      4380      4376      4388      4383      4380      4376      4384
      4383      4380      4376      4388      4384      4376      4377      4392
      4384      4376      4388      4389      4384      4376      4388      4390
      4384      4376      4388      4391      4385      4384      4376      4388
      4386      4384      4376      4388      4387      4384      4376      4388
      4388      4376      4377      4392      4392      4398      4395      4396
      4392      4398      4395      4397      4392      4398      4395      4399
      4393      4392      4398      4395      4394      4392      4398      4395
      4395      4399      4400      4401      4395      4399      4400      4402
      4395      4399      4400      4403      4396      4395      4399      4400
      4397      4395      4399      4400      4398      4395      4399      4400
      4399      4400      4403      4404      4399      4400      4403      4405
      4399      4400      4403      4411      4400      4403      4405      4406
      4400      4403      4411      4412      4400      4403      4411      4413
      4400      4403      4411      4414      4401      4400      4403      4404
      4401      4400      4403      4405      4401      4400      4403      4411
      4402      4400      4403      4404      4402      4400      4403      4405
      4402      4400      4403      4411      4403      4405      4406      4407
      4403      4405      4406      4408      4403      4411      4414      4415
      4404      4403      4405      4406      4404      4403      4411      4412
      4404      4403      4411      4413      4404      4403      4411      4414
      4405      4403      4411      4412      4405      4403      4411      4413
      4405      4403      4411      4414      4405      4406      4408      4409
      4405      4406      4408      4410      4405      4406      4408      4420
      4406      4405      4403      4411      4406      4408      4420      4421
      4406      4408      4420      4422      4406      4408      4420      4423
      4407      4406      4408      4409      4407      4406      4408      4410
      4407      4406      4408      4420      4408      4420      4423      4424
      4408      4420      4423      4425      4408      4420      4423      4426
      4409      4408      4420      4421      4409      4408      4420      4422
      4409      4408      4420      4423      4410      4408      4420      4421
      4410      4408      4420      4422      4410      4408      4420      4423
      4411      4414      4415      4416      4411      4414      4415      4417
      4412      4411      4414      4415      4413      4411      4414      4415
      4414      4415      4417      4418      4414      4415      4417      4419
      4414      4415      4417      4467      4415      4417      4467      4468
      4415      4417      4467      4469      4415      4417      4467      4470
      4416      4415      4417      4418      4416      4415      4417      4419
      4416      4415      4417      4467      4417      4467      4470      4471
      4417      4467      4470      4472      4417      4467      4470      4473
      4418      4417      4467      4468      4418      4417      4467      4469
      4418      4417      4467      4470      4419      4417      4467      4468
      4419      4417      4467      4469      4419      4417      4467      4470
      4420      4423      4426      4427      4420      4423      4426      4428
      4420      4423      4426      4429      4421      4420      4423      4424
      4421      4420      4423      4425      4421      4420      4423      4426
      4422      4420      4423      4424      4422      4420      4423      4425
      4422      4420      4423      4426      4423      4426      4429      4430
      4423      4426      4429      4431      4423      4426      4429      4432
      4424      4423      4426      4427      4424      4423      4426      4428
      4424      4423      4426      4429      4425      4423      4426      4427
      4425      4423      4426      4428      4425      4423      4426      4429
      4426      4429      4432      4433      4426      4429      4432      4434
      4426      4429      4432      4435      4427      4426      4429      4430
      4427      4426      4429      4431      4427      4426      4429      4432
      4428      4426      4429      4430      4428      4426      4429      4431
      4428      4426      4429      4432      4429      4432      4435      4436
      4429      4432      4435      4437      4429      4432      4435      4438
      4430      4429      4432      4433      4430      4429      4432      4434
      4430      4429      4432      4435      4431      4429      4432      4433
      4431      4429      4432      4434      4431      4429      4432      4435
      4432      4435      4438      4439      4432      4435      4438      4440
      4433      4432      4435      4436      4433      4432      4435      4437
      4433      4432      4435      4438      4434      4432      4435      4436
      4434      4432      4435      4437      4434      4432      4435      4438
      4435      4438      4440      4441      4435      4438      4440      4442
      4436      4435      4438      4439      4436      4435      4438      4440
      4437      4435      4438      4439      4437      4435      4438      4440
      4438      4440      4442      4443      4438      4440      4442      4444
      4438      4440      4442      4445      4439      4438      4440      4441
      4439      4438      4440      4442      4440      4442      4445      4446
      4440      4442      4445      4447      4440      4442      4445      4448
      4441      4440      4442      4443      4441      4440      4442      4444
      4441      4440      4442      4445      4442      4445      4448      4449
      4442      4445      4448      4450      4442      4445      4448      4451
      4443      4442      4445      4446      4443      4442      4445      4447
      4443      4442      4445      4448      4444      4442      4445      4446
      4444      4442      4445      4447      4444      4442      4445      4448
      4445      4448      4451      4452      4445      4448      4451      4453
      4445      4448      4451      4454      4446      4445      4448      4449
      4446      4445      4448      4450      4446      4445      4448      4451
      4447      4445      4448      4449      4447      4445      4448      4450
      4447      4445      4448      4451      4448      4451      4454      4455
      4448      4451      4454      4456      4448      4451      4454      4457
      4449      4448      4451      4452      4449      4448      4451      4453
      4449      4448      4451      4454      4450      4448      4451      4452
      4450      4448      4451      4453      4450      4448      4451      4454
      4451      4454      4457      4458      4451      4454      4457      4459
      4451      4454      4457      4460      4452      4451      4454      4455
      4452      4451      4454      4456      4452      4451      4454      4457
      4453      4451      4454      4455      4453      4451      4454      4456
      4453      4451      4454      4457      4454      4457      4460      4461
      4454      4457      4460      4462      4454      4457      4460      4463
      4455      4454      4457      4458      4455      4454      4457      4459
      4455      4454      4457      4460      4456      4454      4457      4458
      4456      4454      4457      4459      4456      4454      4457      4460
      4457      4460      4463      4464      4457      4460      4463      4465
      4457      4460      4463      4466      4458      4457      4460      4461
      4458      4457      4460      4462      4458      4457      4460      4463
      4459      4457      4460      4461      4459      4457      4460      4462
      4459      4457      4460      4463      4461      4460      4463      4464
      4461      4460      4463      4465      4461      4460      4463      4466
      4462      4460      4463      4464      4462      4460      4463      4465
      4462      4460      4463      4466      4467      4470      4473      4474
      4467      4470      4473      4475      4467      4470      4473      4476
      4468      4467      4470      4471      4468      4467      4470      4472
      4468      4467      4470      4473      4469      4467      4470      4471
      4469      4467      4470      4472      4469      4467      4470      4473
      4470      4473      4476      4477      4470      4473      4476      4478
      4470      4473      4476      4479      4471      4470      4473      4474
      4471      4470      4473      4475      4471      4470      4473      4476
      4472      4470      4473      4474      4472      4470      4473      4475
      4472      4470      4473      4476      4473      4476      4479      4480
      4473      4476      4479      4481      4473      4476      4479      4482
      4474      4473      4476      4477      4474      4473      4476      4478
      4474      4473      4476      4479      4475      4473      4476      4477
      4475      4473      4476      4478      4475      4473      4476      4479
      4476      4479      4482      4483      4476      4479      4482      4484
      4476      4479      4482      4485      4477      4476      4479      4480
      4477      4476      4479      4481      4477      4476      4479      4482
      4478      4476      4479      4480      4478      4476      4479      4481
      4478      4476      4479      4482      4479      4482      4485      4486
      4479      4482      4485      4487      4479      4482      4485      4488
      4480      4479      4482      4483      4480      4479      4482      4484
      4480      4479      4482      4485      4481      4479      4482      4483
      4481      4479      4482      4484      4481      4479      4482      4485
      4482      4485      4488      4489      4482      4485      4488      4490
      4482      4485      4488      4491      4483      4482      4485      4486
      4483      4482      4485      4487      4483      4482      4485      4488
      4484      4482      4485      4486      4484      4482      4485      4487
      4484      4482      4485      4488      4485      4488      4491      4492
      4485      4488      4491      4493      4485      4488      4491      4494
      4486      4485      4488      4489      4486      4485      4488      4490
      4486      4485      4488      4491      4487      4485      4488      4489
      4487      4485      4488      4490      4487      4485      4488      4491
      4488      4491      4494      4495      4488      4491      4494      4496
      4488      4491      4494      4497      4489      4488      4491      4492
      4489      4488      4491      4493      4489      4488      4491      4494
      4490      4488      4491      4492      4490      4488      4491      4493
      4490      4488      4491      4494      4491      4494      4497      4498
      4491      4494      4497      4499      4491      4494      4497      4500
      4492      4491      4494      4495      4492      4491      4494      4496
      4492      4491      4494      4497      4493      4491      4494      4495
      4493      4491      4494      4496      4493      4491      4494      4497
      4494      4497      4500      4501      4494      4497      4500      4502
      4494      4497      4500      4503      4495      4494      4497      4498
      4495      4494      4497      4499      4495      4494      4497      4500
      4496      4494      4497      4498      4496      4494      4497      4499
      4496      4494      4497      4500      4497      4500      4503      4504
      4497      4500      4503      4505      4497      4500      4503      4506
      4498      4497      4500      4501      4498      4497      4500      4502
      4498      4497      4500      4503      4499      4497      4500      4501
      4499      4497      4500      4502      4499      4497      4500      4503
      4500      4503      4506      4507      4500      4503      4506      4508
      4500      4503      4506      4509      4501      4500      4503      4504
      4501      4500      4503      4505      4501      4500      4503      4506
      4502      4500      4503      4504      4502      4500      4503      4505
      4502      4500      4503      4506      4504      4503      4506      4507
      4504      4503      4506      4508      4504      4503      4506      4509
      4505      4503      4506      4507      4505      4503      4506      4508
      4505      4503      4506      4509      4510      4511      4526      4527
      4510      4511      4526      4528      4510      4511      4526      4532
      4511      4510      4514      4515      4511      4510      4514      4516
      4511      4510      4514      4517      4511      4510      4518      4519
      4511      4510      4518      4520      4511      4510      4518      4521
      4511      4510      4522      4523      4511      4510      4522      4524
      4511      4510      4522      4525      4511      4526      4532      4529
      4512      4511      4510      4514      4512      4511      4510      4518
      4512      4511      4510      4522      4512      4511      4526      4527
      4512      4511      4526      4528      4512      4511      4526      4532
      4513      4511      4510      4514      4513      4511      4510      4518
      4513      4511      4510      4522      4513      4511      4526      4527
      4513      4511      4526      4528      4513      4511      4526      4532
      4514      4510      4511      4526      4514      4510      4518      4519
      4514      4510      4518      4520      4514      4510      4518      4521
      4514      4510      4522      4523      4514      4510      4522      4524
      4514      4510      4522      4525      4515      4514      4510      4518
      4515      4514      4510      4522      4516      4514      4510      4518
      4516      4514      4510      4522      4517      4514      4510      4518
      4517      4514      4510      4522      4518      4510      4511      4526
      4518      4510      4522      4523      4518      4510      4522      4524
      4518      4510      4522      4525      4519      4518      4510      4522
      4520      4518      4510      4522      4521      4518      4510      4522
      4522      4510      4511      4526      4526      4532      4529      4530
      4526      4532      4529      4531      4526      4532      4529      4533
      4527      4526      4532      4529      4528      4526      4532      4529
      4529      4533      4534      4535      4529      4533      4534      4536
      4529      4533      4534      4537      4530      4529      4533      4534
      4531      4529      4533      4534      4532      4529      4533      4534
      4533      4534      4537      4538      4533      4534      4537      4539
      4533      4534      4537      4545      4534      4537      4539      4540
      4534      4537      4545      4546      4534      4537      4545      4547
      4534      4537      4545      4548      4535      4534      4537      4538
      4535      4534      4537      4539      4535      4534      4537      4545
      4536      4534      4537      4538      4536      4534      4537      4539
      4536      4534      4537      4545      4537      4539      4540      4541
      4537      4539      4540      4542      4537      4545      4548      4549
      4538      4537      4539      4540      4538      4537      4545      4546
      4538      4537      4545      4547      4538      4537      4545      4548
      4539      4537      4545      4546      4539      4537      4545      4547
      4539      4537      4545      4548      4539      4540      4542      4543
      4539      4540      4542      4544      4539      4540      4542      4554
      4540      4539      4537      4545      4540      4542      4554      4555
      4540      4542      4554      4556      4540      4542      4554      4557
      4541      4540      4542      4543      4541      4540      4542      4544
      4541      4540      4542      4554      4542      4554      4557      4558
      4542      4554      4557      4559      4542      4554      4557      4560
      4543      4542      4554      4555      4543      4542      4554      4556
      4543      4542      4554      4557      4544      4542      4554      4555
      4544      4542      4554      4556      4544      4542      4554      4557
      4545      4548      4549      4550      4545      4548      4549      4551
      4546      4545      4548      4549      4547      4545      4548      4549
      4548      4549      4551      4552      4548      4549      4551      4553
      4548      4549      4551      4601      4549      4551      4601      4602
      4549      4551      4601      4603      4549      4551      4601      4604
      4550      4549      4551      4552      4550      4549      4551      4553
      4550      4549      4551      4601      4551      4601      4604      4605
      4551      4601      4604      4606      4551      4601      4604      4607
      4552      4551      4601      4602      4552      4551      4601      4603
      4552      4551      4601      4604      4553      4551      4601      4602
      4553      4551      4601      4603      4553      4551      4601      4604
      4554      4557      4560      4561      4554      4557      4560      4562
      4554      4557      4560      4563      4555      4554      4557      4558
      4555      4554      4557      4559      4555      4554      4557      4560
      4556      4554      4557      4558      4556      4554      4557      4559
      4556      4554      4557      4560      4557      4560      4563      4564
      4557      4560      4563      4565      4557      4560      4563      4566
      4558      4557      4560      4561      4558      4557      4560      4562
      4558      4557      4560      4563      4559      4557      4560      4561
      4559      4557      4560      4562      4559      4557      4560      4563
      4560      4563      4566      4567      4560      4563      4566      4568
      4560      4563      4566      4569      4561      4560      4563      4564
      4561      4560      4563      4565      4561      4560      4563      4566
      4562      4560      4563      4564      4562      4560      4563      4565
      4562      4560      4563      4566      4563      4566      4569      4570
      4563      4566      4569      4571      4563      4566      4569      4572
      4564      4563      4566      4567      4564      4563      4566      4568
      4564      4563      4566      4569      4565      4563      4566      4567
      4565      4563      4566      4568      4565      4563      4566      4569
      4566      4569      4572      4573      4566      4569      4572      4574
      4567      4566      4569      4570      4567      4566      4569      4571
      4567      4566      4569      4572      4568      4566      4569      4570
      4568      4566      4569      4571      4568      4566      4569      4572
      4569      4572      4574      4575      4569      4572      4574      4576
      4570      4569      4572      4573      4570      4569      4572      4574
      4571      4569      4572      4573      4571      4569      4572      4574
      4572      4574      4576      4577      4572      4574      4576      4578
      4572      4574      4576      4579      4573      4572      4574      4575
      4573      4572      4574      4576      4574      4576      4579      4580
      4574      4576      4579      4581      4574      4576      4579      4582
      4575      4574      4576      4577      4575      4574      4576      4578
      4575      4574      4576      4579      4576      4579      4582      4583
      4576      4579      4582      4584      4576      4579      4582      4585
      4577      4576      4579      4580      4577      4576      4579      4581
      4577      4576      4579      4582      4578      4576      4579      4580
      4578      4576      4579      4581      4578      4576      4579      4582
      4579      4582      4585      4586      4579      4582      4585      4587
      4579      4582      4585      4588      4580      4579      4582      4583
      4580      4579      4582      4584      4580      4579      4582      4585
      4581      4579      4582      4583      4581      4579      4582      4584
      4581      4579      4582      4585      4582      4585      4588      4589
      4582      4585      4588      4590      4582      4585      4588      4591
      4583      4582      4585      4586      4583      4582      4585      4587
      4583      4582      4585      4588      4584      4582      4585      4586
      4584      4582      4585      4587      4584      4582      4585      4588
      4585      4588      4591      4592      4585      4588      4591      4593
      4585      4588      4591      4594      4586      4585      4588      4589
      4586      4585      4588      4590      4586      4585      4588      4591
      4587      4585      4588      4589      4587      4585      4588      4590
      4587      4585      4588      4591      4588      4591      4594      4595
      4588      4591      4594      4596      4588      4591      4594      4597
      4589      4588      4591      4592      4589      4588      4591      4593
      4589      4588      4591      4594      4590      4588      4591      4592
      4590      4588      4591      4593      4590      4588      4591      4594
      4591      4594      4597      4598      4591      4594      4597      4599
      4591      4594      4597      4600      4592      4591      4594      4595
      4592      4591      4594      4596      4592      4591      4594      4597
      4593      4591      4594      4595      4593      4591      4594      4596
      4593      4591      4594      4597      4595      4594      4597      4598
      4595      4594      4597      4599      4595      4594      4597      4600
      4596      4594      4597      4598      4596      4594      4597      4599
      4596      4594      4597      4600      4601      4604      4607      4608
      4601      4604      4607      4609      4601      4604      4607      4610
      4602      4601      4604      4605      4602      4601      4604      4606
      4602      4601      4604      4607      4603      4601      4604      4605
      4603      4601      4604      4606      4603      4601      4604      4607
      4604      4607      4610      4611      4604      4607      4610      4612
      4604      4607      4610      4613      4605      4604      4607      4608
      4605      4604      4607      4609      4605      4604      4607      4610
      4606      4604      4607      4608      4606      4604      4607      4609
      4606      4604      4607      4610      4607      4610      4613      4614
      4607      4610      4613      4615      4607      4610      4613      4616
      4608      4607      4610      4611      4608      4607      4610      4612
      4608      4607      4610      4613      4609      4607      4610      4611
      4609      4607      4610      4612      4609      4607      4610      4613
      4610      4613      4616      4617      4610      4613      4616      4618
      4610      4613      4616      4619      4611      4610      4613      4614
      4611      4610      4613      4615      4611      4610      4613      4616
      4612      4610      4613      4614      4612      4610      4613      4615
      4612      4610      4613      4616      4613      4616      4619      4620
      4613      4616      4619      4621      4613      4616      4619      4622
      4614      4613      4616      4617      4614      4613      4616      4618
      4614      4613      4616      4619      4615      4613      4616      4617
      4615      4613      4616      4618      4615      4613      4616      4619
      4616      4619      4622      4623      4616      4619      4622      4624
      4616      4619      4622      4625      4617      4616      4619      4620
      4617      4616      4619      4621      4617      4616      4619      4622
      4618      4616      4619      4620      4618      4616      4619      4621
      4618      4616      4619      4622      4619      4622      4625      4626
      4619      4622      4625      4627      4619      4622      4625      4628
      4620      4619      4622      4623      4620      4619      4622      4624
      4620      4619      4622      4625      4621      4619      4622      4623
      4621      4619      4622      4624      4621      4619      4622      4625
      4622      4625      4628      4629      4622      4625      4628      4630
      4622      4625      4628      4631      4623      4622      4625      4626
      4623      4622      4625      4627      4623      4622      4625      4628
      4624      4622      4625      4626      4624      4622      4625      4627
      4624      4622      4625      4628      4625      4628      4631      4632
      4625      4628      4631      4633      4625      4628      4631      4634
      4626      4625      4628      4629      4626      4625      4628      4630
      4626      4625      4628      4631      4627      4625      4628      4629
      4627      4625      4628      4630      4627      4625      4628      4631
      4628      4631      4634      4635      4628      4631      4634      4636
      4628      4631      4634      4637      4629      4628      4631      4632
      4629      4628      4631      4633      4629      4628      4631      4634
      4630      4628      4631      4632      4630      4628      4631      4633
      4630      4628      4631      4634      4631      4634      4637      4638
      4631      4634      4637      4639      4631      4634      4637      4640
      4632      4631      4634      4635      4632      4631      4634      4636
      4632      4631      4634      4637      4633      4631      4634      4635
      4633      4631      4634      4636      4633      4631      4634      4637
      4634      4637      4640      4641      4634      4637      4640      4642
      4634      4637      4640      4643      4635      4634      4637      4638
      4635      4634      4637      4639      4635      4634      4637      4640
      4636      4634      4637      4638      4636      4634      4637      4639
      4636      4634      4637      4640      4638      4637      4640      4641
      4638      4637      4640      4642      4638      4637      4640      4643
      4639      4637      4640      4641      4639      4637      4640      4642
      4639      4637      4640      4643      4644      4648      4650      4651
      4644      4648      4650      4652      4644      4648      4653      4654
      4644      4648      4653      4655      4644      4648      4653      4659
      4645      4644      4648      4649      4645      4644      4648      4650
      4645      4644      4648      4653      4646      4644      4648      4649
      4646      4644      4648      4650      4646      4644      4648      4653
      4647      4644      4648      4649      4647      4644      4648      4650
      4647      4644      4648      4653      4648      4653      4659      4656
      4649      4648      4650      4651      4649      4648      4650      4652
      4649      4648      4653      4654      4649      4648      4653      4655
      4649      4648      4653      4659      4650      4648      4653      4654
      4650      4648      4653      4655      4650      4648      4653      4659
      4651      4650      4648      4653      4652      4650      4648      4653
      4653      4659      4656      4657      4653      4659      4656      4658
      4653      4659      4656      4660      4654      4653      4659      4656
      4655      4653      4659      4656      4656      4660      4661      4662
      4656      4660      4661      4663      4656      4660      4661      4664
      4657      4656      4660      4661      4658      4656      4660      4661
      4659      4656      4660      4661      4660      4661      4664      4665
      4660      4661      4664      4666      4660      4661      4664      4672
      4661      4664      4666      4667      4661      4664      4672      4673
      4661      4664      4672      4674      4661      4664      4672      4675
      4662      4661      4664      4665      4662      4661      4664      4666
      4662      4661      4664      4672      4663      4661      4664      4665
      4663      4661      4664      4666      4663      4661      4664      4672
      4664      4666      4667      4668      4664      4666      4667      4669
      4664      4672      4675      4676      4665      4664      4666      4667
      4665      4664      4672      4673      4665      4664      4672      4674
      4665      4664      4672      4675      4666      4664      4672      4673
      4666      4664      4672      4674      4666      4664      4672      4675
      4666      4667      4669      4670      4666      4667      4669      4671
      4666      4667      4669      4681      4667      4666      4664      4672
      4667      4669      4681      4682      4667      4669      4681      4683
      4667      4669      4681      4684      4668      4667      4669      4670
      4668      4667      4669      4671      4668      4667      4669      4681
      4669      4681      4684      4685      4669      4681      4684      4686
      4669      4681      4684      4687      4670      4669      4681      4682
      4670      4669      4681      4683      4670      4669      4681      4684
      4671      4669      4681      4682      4671      4669      4681      4683
      4671      4669      4681      4684      4672      4675      4676      4677
      4672      4675      4676      4678      4673      4672      4675      4676
      4674      4672      4675      4676      4675      4676      4678      4679
      4675      4676      4678      4680      4675      4676      4678      4728
      4676      4678      4728      4729      4676      4678      4728      4730
      4676      4678      4728      4731      4677      4676      4678      4679
      4677      4676      4678      4680      4677      4676      4678      4728
      4678      4728      4731      4732      4678      4728      4731      4733
      4678      4728      4731      4734      4679      4678      4728      4729
      4679      4678      4728      4730      4679      4678      4728      4731
      4680      4678      4728      4729      4680      4678      4728      4730
      4680      4678      4728      4731      4681      4684      4687      4688
      4681      4684      4687      4689      4681      4684      4687      4690
      4682      4681      4684      4685      4682      4681      4684      4686
      4682      4681      4684      4687      4683      4681      4684      4685
      4683      4681      4684      4686      4683      4681      4684      4687
      4684      4687      4690      4691      4684      4687      4690      4692
      4684      4687      4690      4693      4685      4684      4687      4688
      4685      4684      4687      4689      4685      4684      4687      4690
      4686      4684      4687      4688      4686      4684      4687      4689
      4686      4684      4687      4690      4687      4690      4693      4694
      4687      4690      4693      4695      4687      4690      4693      4696
      4688      4687      4690      4691      4688      4687      4690      4692
      4688      4687      4690      4693      4689      4687      4690      4691
      4689      4687      4690      4692      4689      4687      4690      4693
      4690      4693      4696      4697      4690      4693      4696      4698
      4690      4693      4696      4699      4691      4690      4693      4694
      4691      4690      4693      4695      4691      4690      4693      4696
      4692      4690      4693      4694      4692      4690      4693      4695
      4692      4690      4693      4696      4693      4696      4699      4700
      4693      4696      4699      4701      4694      4693      4696      4697
      4694      4693      4696      4698      4694      4693      4696      4699
      4695      4693      4696      4697      4695      4693      4696      4698
      4695      4693      4696      4699      4696      4699      4701      4702
      4696      4699      4701      4703      4697      4696      4699      4700
      4697      4696      4699      4701      4698      4696      4699      4700
      4698      4696      4699      4701      4699      4701      4703      4704
      4699      4701      4703      4705      4699      4701      4703      4706
      4700      4699      4701      4702      4700      4699      4701      4703
      4701      4703      4706      4707      4701      4703      4706      4708
      4701      4703      4706      4709      4702      4701      4703      4704
      4702      4701      4703      4705      4702      4701      4703      4706
      4703      4706      4709      4710      4703      4706      4709      4711
      4703      4706      4709      4712      4704      4703      4706      4707
      4704      4703      4706      4708      4704      4703      4706      4709
      4705      4703      4706      4707      4705      4703      4706      4708
      4705      4703      4706      4709      4706      4709      4712      4713
      4706      4709      4712      4714      4706      4709      4712      4715
      4707      4706      4709      4710      4707      4706      4709      4711
      4707      4706      4709      4712      4708      4706      4709      4710
      4708      4706      4709      4711      4708      4706      4709      4712
      4709      4712      4715      4716      4709      4712      4715      4717
      4709      4712      4715      4718      4710      4709      4712      4713
      4710      4709      4712      4714      4710      4709      4712      4715
      4711      4709      4712      4713      4711      4709      4712      4714
      4711      4709      4712      4715      4712      4715      4718      4719
      4712      4715      4718      4720      4712      4715      4718      4721
      4713      4712      4715      4716      4713      4712      4715      4717
      4713      4712      4715      4718      4714      4712      4715      4716
      4714      4712      4715      4717      4714      4712      4715      4718
      4715      4718      4721      4722      4715      4718      4721      4723
      4715      4718      4721      4724      4716      4715      4718      4719
      4716      4715      4718      4720      4716      4715      4718      4721
      4717      4715      4718      4719      4717      4715      4718      4720
      4717      4715      4718      4721      4718      4721      4724      4725
      4718      4721      4724      4726      4718      4721      4724      4727
      4719      4718      4721      4722      4719      4718      4721      4723
      4719      4718      4721      4724      4720      4718      4721      4722
      4720      4718      4721      4723      4720      4718      4721      4724
      4722      4721      4724      4725      4722      4721      4724      4726
      4722      4721      4724      4727      4723      4721      4724      4725
      4723      4721      4724      4726      4723      4721      4724      4727
      4728      4731      4734      4735      4728      4731      4734      4736
      4728      4731      4734      4737      4729      4728      4731      4732
      4729      4728      4731      4733      4729      4728      4731      4734
      4730      4728      4731      4732      4730      4728      4731      4733
      4730      4728      4731      4734      4731      4734      4737      4738
      4731      4734      4737      4739      4731      4734      4737      4740
      4732      4731      4734      4735      4732      4731      4734      4736
      4732      4731      4734      4737      4733      4731      4734      4735
      4733      4731      4734      4736      4733      4731      4734      4737
      4734      4737      4740      4741      4734      4737      4740      4742
      4734      4737      4740      4743      4735      4734      4737      4738
      4735      4734      4737      4739      4735      4734      4737      4740
      4736      4734      4737      4738      4736      4734      4737      4739
      4736      4734      4737      4740      4737      4740      4743      4744
      4737      4740      4743      4745      4737      4740      4743      4746
      4738      4737      4740      4741      4738      4737      4740      4742
      4738      4737      4740      4743      4739      4737      4740      4741
      4739      4737      4740      4742      4739      4737      4740      4743
      4740      4743      4746      4747      4740      4743      4746      4748
      4740      4743      4746      4749      4741      4740      4743      4744
      4741      4740      4743      4745      4741      4740      4743      4746
      4742      4740      4743      4744      4742      4740      4743      4745
      4742      4740      4743      4746      4743      4746      4749      4750
      4743      4746      4749      4751      4743      4746      4749      4752
      4744      4743      4746      4747      4744      4743      4746      4748
      4744      4743      4746      4749      4745      4743      4746      4747
      4745      4743      4746      4748      4745      4743      4746      4749
      4746      4749      4752      4753      4746      4749      4752      4754
      4746      4749      4752      4755      4747      4746      4749      4750
      4747      4746      4749      4751      4747      4746      4749      4752
      4748      4746      4749      4750      4748      4746      4749      4751
      4748      4746      4749      4752      4749      4752      4755      4756
      4749      4752      4755      4757      4749      4752      4755      4758
      4750      4749      4752      4753      4750      4749      4752      4754
      4750      4749      4752      4755      4751      4749      4752      4753
      4751      4749      4752      4754      4751      4749      4752      4755
      4752      4755      4758      4759      4752      4755      4758      4760
      4752      4755      4758      4761      4753      4752      4755      4756
      4753      4752      4755      4757      4753      4752      4755      4758
      4754      4752      4755      4756      4754      4752      4755      4757
      4754      4752      4755      4758      4755      4758      4761      4762
      4755      4758      4761      4763      4755      4758      4761      4764
      4756      4755      4758      4759      4756      4755      4758      4760
      4756      4755      4758      4761      4757      4755      4758      4759
      4757      4755      4758      4760      4757      4755      4758      4761
      4758      4761      4764      4765      4758      4761      4764      4766
      4758      4761      4764      4767      4759      4758      4761      4762
      4759      4758      4761      4763      4759      4758      4761      4764
      4760      4758      4761      4762      4760      4758      4761      4763
      4760      4758      4761      4764      4761      4764      4767      4768
      4761      4764      4767      4769      4761      4764      4767      4770
      4762      4761      4764      4765      4762      4761      4764      4766
      4762      4761      4764      4767      4763      4761      4764      4765
      4763      4761      4764      4766      4763      4761      4764      4767
      4765      4764      4767      4768      4765      4764      4767      4769
      4765      4764      4767      4770      4766      4764      4767      4768
      4766      4764      4767      4769      4766      4764      4767      4770
      4771      4772      4787      4788      4771      4772      4787      4789
      4771      4772      4787      4793      4772      4771      4775      4776
      4772      4771      4775      4777      4772      4771      4775      4778
      4772      4771      4779      4780      4772      4771      4779      4781
      4772      4771      4779      4782      4772      4771      4783      4784
      4772      4771      4783      4785      4772      4771      4783      4786
      4772      4787      4793      4790      4773      4772      4771      4775
      4773      4772      4771      4779      4773      4772      4771      4783
      4773      4772      4787      4788      4773      4772      4787      4789
      4773      4772      4787      4793      4774      4772      4771      4775
      4774      4772      4771      4779      4774      4772      4771      4783
      4774      4772      4787      4788      4774      4772      4787      4789
      4774      4772      4787      4793      4775      4771      4772      4787
      4775      4771      4779      4780      4775      4771      4779      4781
      4775      4771      4779      4782      4775      4771      4783      4784
      4775      4771      4783      4785      4775      4771      4783      4786
      4776      4775      4771      4779      4776      4775      4771      4783
      4777      4775      4771      4779      4777      4775      4771      4783
      4778      4775      4771      4779      4778      4775      4771      4783
      4779      4771      4772      4787      4779      4771      4783      4784
      4779      4771      4783      4785      4779      4771      4783      4786
      4780      4779      4771      4783      4781      4779      4771      4783
      4782      4779      4771      4783      4783      4771      4772      4787
      4787      4793      4790      4791      4787      4793      4790      4792
      4787      4793      4790      4794      4788      4787      4793      4790
      4789      4787      4793      4790      4790      4794      4795      4796
      4790      4794      4795      4797      4790      4794      4795      4798
      4791      4790      4794      4795      4792      4790      4794      4795
      4793      4790      4794      4795      4794      4795      4798      4799
      4794      4795      4798      4800      4794      4795      4798      4806
      4795      4798      4800      4801      4795      4798      4806      4807
      4795      4798      4806      4808      4795      4798      4806      4809
      4796      4795      4798      4799      4796      4795      4798      4800
      4796      4795      4798      4806      4797      4795      4798      4799
      4797      4795      4798      4800      4797      4795      4798      4806
      4798      4800      4801      4802      4798      4800      4801      4803
      4798      4806      4809      4810      4799      4798      4800      4801
      4799      4798      4806      4807      4799      4798      4806      4808
      4799      4798      4806      4809      4800      4798      4806      4807
      4800      4798      4806      4808      4800      4798      4806      4809
      4800      4801      4803      4804      4800      4801      4803      4805
      4800      4801      4803      4815      4801      4800      4798      4806
      4801      4803      4815      4816      4801      4803      4815      4817
      4801      4803      4815      4818      4802      4801      4803      4804
      4802      4801      4803      4805      4802      4801      4803      4815
      4803      4815      4818      4819      4803      4815      4818      4820
      4803      4815      4818      4821      4804      4803      4815      4816
      4804      4803      4815      4817      4804      4803      4815      4818
      4805      4803      4815      4816      4805      4803      4815      4817
      4805      4803      4815      4818      4806      4809      4810      4811
      4806      4809      4810      4812      4807      4806      4809      4810
      4808      4806      4809      4810      4809      4810      4812      4813
      4809      4810      4812      4814      4809      4810      4812      4862
      4810      4812      4862      4863      4810      4812      4862      4864
      4810      4812      4862      4865      4811      4810      4812      4813
      4811      4810      4812      4814      4811      4810      4812      4862
      4812      4862      4865      4866      4812      4862      4865      4867
      4812      4862      4865      4868      4813      4812      4862      4863
      4813      4812      4862      4864      4813      4812      4862      4865
      4814      4812      4862      4863      4814      4812      4862      4864
      4814      4812      4862      4865      4815      4818      4821      4822
      4815      4818      4821      4823      4815      4818      4821      4824
      4816      4815      4818      4819      4816      4815      4818      4820
      4816      4815      4818      4821      4817      4815      4818      4819
      4817      4815      4818      4820      4817      4815      4818      4821
      4818      4821      4824      4825      4818      4821      4824      4826
      4818      4821      4824      4827      4819      4818      4821      4822
      4819      4818      4821      4823      4819      4818      4821      4824
      4820      4818      4821      4822      4820      4818      4821      4823
      4820      4818      4821      4824      4821      4824      4827      4828
      4821      4824      4827      4829      4821      4824      4827      4830
      4822      4821      4824      4825      4822      4821      4824      4826
      4822      4821      4824      4827      4823      4821      4824      4825
      4823      4821      4824      4826      4823      4821      4824      4827
      4824      4827      4830      4831      4824      4827      4830      4832
      4824      4827      4830      4833      4825      4824      4827      4828
      4825      4824      4827      4829      4825      4824      4827      4830
      4826      4824      4827      4828      4826      4824      4827      4829
      4826      4824      4827      4830      4827      4830      4833      4834
      4827      4830      4833      4835      4828      4827      4830      4831
      4828      4827      4830      4832      4828      4827      4830      4833
      4829      4827      4830      4831      4829      4827      4830      4832
      4829      4827      4830      4833      4830      4833      4835      4836
      4830      4833      4835      4837      4831      4830      4833      4834
      4831      4830      4833      4835      4832      4830      4833      4834
      4832      4830      4833      4835      4833      4835      4837      4838
      4833      4835      4837      4839      4833      4835      4837      4840
      4834      4833      4835      4836      4834      4833      4835      4837
      4835      4837      4840      4841      4835      4837      4840      4842
      4835      4837      4840      4843      4836      4835      4837      4838
      4836      4835      4837      4839      4836      4835      4837      4840
      4837      4840      4843      4844      4837      4840      4843      4845
      4837      4840      4843      4846      4838      4837      4840      4841
      4838      4837      4840      4842      4838      4837      4840      4843
      4839      4837      4840      4841      4839      4837      4840      4842
      4839      4837      4840      4843      4840      4843      4846      4847
      4840      4843      4846      4848      4840      4843      4846      4849
      4841      4840      4843      4844      4841      4840      4843      4845
      4841      4840      4843      4846      4842      4840      4843      4844
      4842      4840      4843      4845      4842      4840      4843      4846
      4843      4846      4849      4850      4843      4846      4849      4851
      4843      4846      4849      4852      4844      4843      4846      4847
      4844      4843      4846      4848      4844      4843      4846      4849
      4845      4843      4846      4847      4845      4843      4846      4848
      4845      4843      4846      4849      4846      4849      4852      4853
      4846      4849      4852      4854      4846      4849      4852      4855
      4847      4846      4849      4850      4847      4846      4849      4851
      4847      4846      4849      4852      4848      4846      4849      4850
      4848      4846      4849      4851      4848      4846      4849      4852
      4849      4852      4855      4856      4849      4852      4855      4857
      4849      4852      4855      4858      4850      4849      4852      4853
      4850      4849      4852      4854      4850      4849      4852      4855
      4851      4849      4852      4853      4851      4849      4852      4854
      4851      4849      4852      4855      4852      4855      4858      4859
      4852      4855      4858      4860      4852      4855      4858      4861
      4853      4852      4855      4856      4853      4852      4855      4857
      4853      4852      4855      4858      4854      4852      4855      4856
      4854      4852      4855      4857      4854      4852      4855      4858
      4856      4855      4858      4859      4856      4855      4858      4860
      4856      4855      4858      4861      4857      4855      4858      4859
      4857      4855      4858      4860      4857      4855      4858      4861
      4862      4865      4868      4869      4862      4865      4868      4870
      4862      4865      4868      4871      4863      4862      4865      4866
      4863      4862      4865      4867      4863      4862      4865      4868
      4864      4862      4865      4866      4864      4862      4865      4867
      4864      4862      4865      4868      4865      4868      4871      4872
      4865      4868      4871      4873      4865      4868      4871      4874
      4866      4865      4868      4869      4866      4865      4868      4870
      4866      4865      4868      4871      4867      4865      4868      4869
      4867      4865      4868      4870      4867      4865      4868      4871
      4868      4871      4874      4875      4868      4871      4874      4876
      4868      4871      4874      4877      4869      4868      4871      4872
      4869      4868      4871      4873      4869      4868      4871      4874
      4870      4868      4871      4872      4870      4868      4871      4873
      4870      4868      4871      4874      4871      4874      4877      4878
      4871      4874      4877      4879      4871      4874      4877      4880
      4872      4871      4874      4875      4872      4871      4874      4876
      4872      4871      4874      4877      4873      4871      4874      4875
      4873      4871      4874      4876      4873      4871      4874      4877
      4874      4877      4880      4881      4874      4877      4880      4882
      4874      4877      4880      4883      4875      4874      4877      4878
      4875      4874      4877      4879      4875      4874      4877      4880
      4876      4874      4877      4878      4876      4874      4877      4879
      4876      4874      4877      4880      4877      4880      4883      4884
      4877      4880      4883      4885      4877      4880      4883      4886
      4878      4877      4880      4881      4878      4877      4880      4882
      4878      4877      4880      4883      4879      4877      4880      4881
      4879      4877      4880      4882      4879      4877      4880      4883
      4880      4883      4886      4887      4880      4883      4886      4888
      4880      4883      4886      4889      4881      4880      4883      4884
      4881      4880      4883      4885      4881      4880      4883      4886
      4882      4880      4883      4884      4882      4880      4883      4885
      4882      4880      4883      4886      4883      4886      4889      4890
      4883      4886      4889      4891      4883      4886      4889      4892
      4884      4883      4886      4887      4884      4883      4886      4888
      4884      4883      4886      4889      4885      4883      4886      4887
      4885      4883      4886      4888      4885      4883      4886      4889
      4886      4889      4892      4893      4886      4889      4892      4894
      4886      4889      4892      4895      4887      4886      4889      4890
      4887      4886      4889      4891      4887      4886      4889      4892
      4888      4886      4889      4890      4888      4886      4889      4891
      4888      4886      4889      4892      4889      4892      4895      4896
      4889      4892      4895      4897      4889      4892      4895      4898
      4890      4889      4892      4893      4890      4889      4892      4894
      4890      4889      4892      4895      4891      4889      4892      4893
      4891      4889      4892      4894      4891      4889      4892      4895
      4892      4895      4898      4899      4892      4895      4898      4900
      4892      4895      4898      4901      4893      4892      4895      4896
      4893      4892      4895      4897      4893      4892      4895      4898
      4894      4892      4895      4896      4894      4892      4895      4897
      4894      4892      4895      4898      4895      4898      4901      4902
      4895      4898      4901      4903      4895      4898      4901      4904
      4896      4895      4898      4899      4896      4895      4898      4900
      4896      4895      4898      4901      4897      4895      4898      4899
      4897      4895      4898      4900      4897      4895      4898      4901
      4899      4898      4901      4902      4899      4898      4901      4903
      4899      4898      4901      4904      4900      4898      4901      4902
      4900      4898      4901      4903      4900      4898      4901      4904
      4905      4906      4921      4922      4905      4906      4921      4923
      4905      4906      4921      4927      4906      4905      4909      4910
      4906      4905      4909      4911      4906      4905      4909      4912
      4906      4905      4913      4914      4906      4905      4913      4915
      4906      4905      4913      4916      4906      4905      4917      4918
      4906      4905      4917      4919      4906      4905      4917      4920
      4906      4921      4927      4924      4907      4906      4905      4909
      4907      4906      4905      4913      4907      4906      4905      4917
      4907      4906      4921      4922      4907      4906      4921      4923
      4907      4906      4921      4927      4908      4906      4905      4909
      4908      4906      4905      4913      4908      4906      4905      4917
      4908      4906      4921      4922      4908      4906      4921      4923
      4908      4906      4921      4927      4909      4905      4906      4921
      4909      4905      4913      4914      4909      4905      4913      4915
      4909      4905      4913      4916      4909      4905      4917      4918
      4909      4905      4917      4919      4909      4905      4917      4920
      4910      4909      4905      4913      4910      4909      4905      4917
      4911      4909      4905      4913      4911      4909      4905      4917
      4912      4909      4905      4913      4912      4909      4905      4917
      4913      4905      4906      4921      4913      4905      4917      4918
      4913      4905      4917      4919      4913      4905      4917      4920
      4914      4913      4905      4917      4915      4913      4905      4917
      4916      4913      4905      4917      4917      4905      4906      4921
      4921      4927      4924      4925      4921      4927      4924      4926
      4921      4927      4924      4928      4922      4921      4927      4924
      4923      4921      4927      4924      4924      4928      4929      4930
      4924      4928      4929      4931      4924      4928      4929      4932
      4925      4924      4928      4929      4926      4924      4928      4929
      4927      4924      4928      4929      4928      4929      4932      4933
      4928      4929      4932      4934      4928      4929      4932      4940
      4929      4932      4934      4935      4929      4932      4940      4941
      4929      4932      4940      4942      4929      4932      4940      4943
      4930      4929      4932      4933      4930      4929      4932      4934
      4930      4929      4932      4940      4931      4929      4932      4933
      4931      4929      4932      4934      4931      4929      4932      4940
      4932      4934      4935      4936      4932      4934      4935      4937
      4932      4940      4943      4944      4933      4932      4934      4935
      4933      4932      4940      4941      4933      4932      4940      4942
      4933      4932      4940      4943      4934      4932      4940      4941
      4934      4932      4940      4942      4934      4932      4940      4943
      4934      4935      4937      4938      4934      4935      4937      4939
      4934      4935      4937      4949      4935      4934      4932      4940
      4935      4937      4949      4950      4935      4937      4949      4951
      4935      4937      4949      4952      4936      4935      4937      4938
      4936      4935      4937      4939      4936      4935      4937      4949
      4937      4949      4952      4953      4937      4949      4952      4954
      4937      4949      4952      4955      4938      4937      4949      4950
      4938      4937      4949      4951      4938      4937      4949      4952
      4939      4937      4949      4950      4939      4937      4949      4951
      4939      4937      4949      4952      4940      4943      4944      4945
      4940      4943      4944      4946      4941      4940      4943      4944
      4942      4940      4943      4944      4943      4944      4946      4947
      4943      4944      4946      4948      4943      4944      4946      4996
      4944      4946      4996      4997      4944      4946      4996      4998
      4944      4946      4996      4999      4945      4944      4946      4947
      4945      4944      4946      4948      4945      4944      4946      4996
      4946      4996      4999      5000      4946      4996      4999      5001
      4946      4996      4999      5002      4947      4946      4996      4997
      4947      4946      4996      4998      4947      4946      4996      4999
      4948      4946      4996      4997      4948      4946      4996      4998
      4948      4946      4996      4999      4949      4952      4955      4956
      4949      4952      4955      4957      4949      4952      4955      4958
      4950      4949      4952      4953      4950      4949      4952      4954
      4950      4949      4952      4955      4951      4949      4952      4953
      4951      4949      4952      4954      4951      4949      4952      4955
      4952      4955      4958      4959      4952      4955      4958      4960
      4952      4955      4958      4961      4953      4952      4955      4956
      4953      4952      4955      4957      4953      4952      4955      4958
      4954      4952      4955      4956      4954      4952      4955      4957
      4954      4952      4955      4958      4955      4958      4961      4962
      4955      4958      4961      4963      4955      4958      4961      4964
      4956      4955      4958      4959      4956      4955      4958      4960
      4956      4955      4958      4961      4957      4955      4958      4959
      4957      4955      4958      4960      4957      4955      4958      4961
      4958      4961      4964      4965      4958      4961      4964      4966
      4958      4961      4964      4967      4959      4958      4961      4962
      4959      4958      4961      4963      4959      4958      4961      4964
      4960      4958      4961      4962      4960      4958      4961      4963
      4960      4958      4961      4964      4961      4964      4967      4968
      4961      4964      4967      4969      4962      4961      4964      4965
      4962      4961      4964      4966      4962      4961      4964      4967
      4963      4961      4964      4965      4963      4961      4964      4966
      4963      4961      4964      4967      4964      4967      4969      4970
      4964      4967      4969      4971      4965      4964      4967      4968
      4965      4964      4967      4969      4966      4964      4967      4968
      4966      4964      4967      4969      4967      4969      4971      4972
      4967      4969      4971      4973      4967      4969      4971      4974
      4968      4967      4969      4970      4968      4967      4969      4971
      4969      4971      4974      4975      4969      4971      4974      4976
      4969      4971      4974      4977      4970      4969      4971      4972
      4970      4969      4971      4973      4970      4969      4971      4974
      4971      4974      4977      4978      4971      4974      4977      4979
      4971      4974      4977      4980      4972      4971      4974      4975
      4972      4971      4974      4976      4972      4971      4974      4977
      4973      4971      4974      4975      4973      4971      4974      4976
      4973      4971      4974      4977      4974      4977      4980      4981
      4974      4977      4980      4982      4974      4977      4980      4983
      4975      4974      4977      4978      4975      4974      4977      4979
      4975      4974      4977      4980      4976      4974      4977      4978
      4976      4974      4977      4979      4976      4974      4977      4980
      4977      4980      4983      4984      4977      4980      4983      4985
      4977      4980      4983      4986      4978      4977      4980      4981
      4978      4977      4980      4982      4978      4977      4980      4983
      4979      4977      4980      4981      4979      4977      4980      4982
      4979      4977      4980      4983      4980      4983      4986      4987
      4980      4983      4986      4988      4980      4983      4986      4989
      4981      4980      4983      4984      4981      4980      4983      4985
      4981      4980      4983      4986      4982      4980      4983      4984
      4982      4980      4983      4985      4982      4980      4983      4986
      4983      4986      4989      4990      4983      4986      4989      4991
      4983      4986      4989      4992      4984      4983      4986      4987
      4984      4983      4986      4988      4984      4983      4986      4989
      4985      4983      4986      4987      4985      4983      4986      4988
      4985      4983      4986      4989      4986      4989      4992      4993
      4986      4989      4992      4994      4986      4989      4992      4995
      4987      4986      4989      4990      4987      4986      4989      4991
      4987      4986      4989      4992      4988      4986      4989      4990
      4988      4986      4989      4991      4988      4986      4989      4992
      4990      4989      4992      4993      4990      4989      4992      4994
      4990      4989      4992      4995      4991      4989      4992      4993
      4991      4989      4992      4994      4991      4989      4992      4995
      4996      4999      5002      5003      4996      4999      5002      5004
      4996      4999      5002      5005      4997      4996      4999      5000
      4997      4996      4999      5001      4997      4996      4999      5002
      4998      4996      4999      5000      4998      4996      4999      5001
      4998      4996      4999      5002      4999      5002      5005      5006
      4999      5002      5005      5007      4999      5002      5005      5008
      5000      4999      5002      5003      5000      4999      5002      5004
      5000      4999      5002      5005      5001      4999      5002      5003
      5001      4999      5002      5004      5001      4999      5002      5005
      5002      5005      5008      5009      5002      5005      5008      5010
      5002      5005      5008      5011      5003      5002      5005      5006
      5003      5002      5005      5007      5003      5002      5005      5008
      5004      5002      5005      5006      5004      5002      5005      5007
      5004      5002      5005      5008      5005      5008      5011      5012
      5005      5008      5011      5013      5005      5008      5011      5014
      5006      5005      5008      5009      5006      5005      5008      5010
      5006      5005      5008      5011      5007      5005      5008      5009
      5007      5005      5008      5010      5007      5005      5008      5011
      5008      5011      5014      5015      5008      5011      5014      5016
      5008      5011      5014      5017      5009      5008      5011      5012
      5009      5008      5011      5013      5009      5008      5011      5014
      5010      5008      5011      5012      5010      5008      5011      5013
      5010      5008      5011      5014      5011      5014      5017      5018
      5011      5014      5017      5019      5011      5014      5017      5020
      5012      5011      5014      5015      5012      5011      5014      5016
      5012      5011      5014      5017      5013      5011      5014      5015
      5013      5011      5014      5016      5013      5011      5014      5017
      5014      5017      5020      5021      5014      5017      5020      5022
      5014      5017      5020      5023      5015      5014      5017      5018
      5015      5014      5017      5019      5015      5014      5017      5020
      5016      5014      5017      5018      5016      5014      5017      5019
      5016      5014      5017      5020      5017      5020      5023      5024
      5017      5020      5023      5025      5017      5020      5023      5026
      5018      5017      5020      5021      5018      5017      5020      5022
      5018      5017      5020      5023      5019      5017      5020      5021
      5019      5017      5020      5022      5019      5017      5020      5023
      5020      5023      5026      5027      5020      5023      5026      5028
      5020      5023      5026      5029      5021      5020      5023      5024
      5021      5020      5023      5025      5021      5020      5023      5026
      5022      5020      5023      5024      5022      5020      5023      5025
      5022      5020      5023      5026      5023      5026      5029      5030
      5023      5026      5029      5031      5023      5026      5029      5032
      5024      5023      5026      5027      5024      5023      5026      5028
      5024      5023      5026      5029      5025      5023      5026      5027
      5025      5023      5026      5028      5025      5023      5026      5029
      5026      5029      5032      5033      5026      5029      5032      5034
      5026      5029      5032      5035      5027      5026      5029      5030
      5027      5026      5029      5031      5027      5026      5029      5032
      5028      5026      5029      5030      5028      5026      5029      5031
      5028      5026      5029      5032      5029      5032      5035      5036
      5029      5032      5035      5037      5029      5032      5035      5038
      5030      5029      5032      5033      5030      5029      5032      5034
      5030      5029      5032      5035      5031      5029      5032      5033
      5031      5029      5032      5034      5031      5029      5032      5035
      5033      5032      5035      5036      5033      5032      5035      5037
      5033      5032      5035      5038      5034      5032      5035      5036
      5034      5032      5035      5037      5034      5032      5035      5038
      5039      5040      5055      5056      5039      5040      5055      5057
      5039      5040      5055      5061      5040      5039      5043      5044
      5040      5039      5043      5045      5040      5039      5043      5046
      5040      5039      5047      5048      5040      5039      5047      5049
      5040      5039      5047      5050      5040      5039      5051      5052
      5040      5039      5051      5053      5040      5039      5051      5054
      5040      5055      5061      5058      5041      5040      5039      5043
      5041      5040      5039      5047      5041      5040      5039      5051
      5041      5040      5055      5056      5041      5040      5055      5057
      5041      5040      5055      5061      5042      5040      5039      5043
      5042      5040      5039      5047      5042      5040      5039      5051
      5042      5040      5055      5056      5042      5040      5055      5057
      5042      5040      5055      5061      5043      5039      5040      5055
      5043      5039      5047      5048      5043      5039      5047      5049
      5043      5039      5047      5050      5043      5039      5051      5052
      5043      5039      5051      5053      5043      5039      5051      5054
      5044      5043      5039      5047      5044      5043      5039      5051
      5045      5043      5039      5047      5045      5043      5039      5051
      5046      5043      5039      5047      5046      5043      5039      5051
      5047      5039      5040      5055      5047      5039      5051      5052
      5047      5039      5051      5053      5047      5039      5051      5054
      5048      5047      5039      5051      5049      5047      5039      5051
      5050      5047      5039      5051      5051      5039      5040      5055
      5055      5061      5058      5059      5055      5061      5058      5060
      5055      5061      5058      5062      5056      5055      5061      5058
      5057      5055      5061      5058      5058      5062      5063      5064
      5058      5062      5063      5065      5058      5062      5063      5066
      5059      5058      5062      5063      5060      5058      5062      5063
      5061      5058      5062      5063      5062      5063      5066      5067
      5062      5063      5066      5068      5062      5063      5066      5074
      5063      5066      5068      5069      5063      5066      5074      5075
      5063      5066      5074      5076      5063      5066      5074      5077
      5064      5063      5066      5067      5064      5063      5066      5068
      5064      5063      5066      5074      5065      5063      5066      5067
      5065      5063      5066      5068      5065      5063      5066      5074
      5066      5068      5069      5070      5066      5068      5069      5071
      5066      5074      5077      5078      5067      5066      5068      5069
      5067      5066      5074      5075      5067      5066      5074      5076
      5067      5066      5074      5077      5068      5066      5074      5075
      5068      5066      5074      5076      5068      5066      5074      5077
      5068      5069      5071      5072      5068      5069      5071      5073
      5068      5069      5071      5083      5069      5068      5066      5074
      5069      5071      5083      5084      5069      5071      5083      5085
      5069      5071      5083      5086      5070      5069      5071      5072
      5070      5069      5071      5073      5070      5069      5071      5083
      5071      5083      5086      5087      5071      5083      5086      5088
      5071      5083      5086      5089      5072      5071      5083      5084
      5072      5071      5083      5085      5072      5071      5083      5086
      5073      5071      5083      5084      5073      5071      5083      5085
      5073      5071      5083      5086      5074      5077      5078      5079
      5074      5077      5078      5080      5075      5074      5077      5078
      5076      5074      5077      5078      5077      5078      5080      5081
      5077      5078      5080      5082      5077      5078      5080      5130
      5078      5080      5130      5131      5078      5080      5130      5132
      5078      5080      5130      5133      5079      5078      5080      5081
      5079      5078      5080      5082      5079      5078      5080      5130
      5080      5130      5133      5134      5080      5130      5133      5135
      5080      5130      5133      5136      5081      5080      5130      5131
      5081      5080      5130      5132      5081      5080      5130      5133
      5082      5080      5130      5131      5082      5080      5130      5132
      5082      5080      5130      5133      5083      5086      5089      5090
      5083      5086      5089      5091      5083      5086      5089      5092
      5084      5083      5086      5087      5084      5083      5086      5088
      5084      5083      5086      5089      5085      5083      5086      5087
      5085      5083      5086      5088      5085      5083      5086      5089
      5086      5089      5092      5093      5086      5089      5092      5094
      5086      5089      5092      5095      5087      5086      5089      5090
      5087      5086      5089      5091      5087      5086      5089      5092
      5088      5086      5089      5090      5088      5086      5089      5091
      5088      5086      5089      5092      5089      5092      5095      5096
      5089      5092      5095      5097      5089      5092      5095      5098
      5090      5089      5092      5093      5090      5089      5092      5094
      5090      5089      5092      5095      5091      5089      5092      5093
      5091      5089      5092      5094      5091      5089      5092      5095
      5092      5095      5098      5099      5092      5095      5098      5100
      5092      5095      5098      5101      5093      5092      5095      5096
      5093      5092      5095      5097      5093      5092      5095      5098
      5094      5092      5095      5096      5094      5092      5095      5097
      5094      5092      5095      5098      5095      5098      5101      5102
      5095      5098      5101      5103      5096      5095      5098      5099
      5096      5095      5098      5100      5096      5095      5098      5101
      5097      5095      5098      5099      5097      5095      5098      5100
      5097      5095      5098      5101      5098      5101      5103      5104
      5098      5101      5103      5105      5099      5098      5101      5102
      5099      5098      5101      5103      5100      5098      5101      5102
      5100      5098      5101      5103      5101      5103      5105      5106
      5101      5103      5105      5107      5101      5103      5105      5108
      5102      5101      5103      5104      5102      5101      5103      5105
      5103      5105      5108      5109      5103      5105      5108      5110
      5103      5105      5108      5111      5104      5103      5105      5106
      5104      5103      5105      5107      5104      5103      5105      5108
      5105      5108      5111      5112      5105      5108      5111      5113
      5105      5108      5111      5114      5106      5105      5108      5109
      5106      5105      5108      5110      5106      5105      5108      5111
      5107      5105      5108      5109      5107      5105      5108      5110
      5107      5105      5108      5111      5108      5111      5114      5115
      5108      5111      5114      5116      5108      5111      5114      5117
      5109      5108      5111      5112      5109      5108      5111      5113
      5109      5108      5111      5114      5110      5108      5111      5112
      5110      5108      5111      5113      5110      5108      5111      5114
      5111      5114      5117      5118      5111      5114      5117      5119
      5111      5114      5117      5120      5112      5111      5114      5115
      5112      5111      5114      5116      5112      5111      5114      5117
      5113      5111      5114      5115      5113      5111      5114      5116
      5113      5111      5114      5117      5114      5117      5120      5121
      5114      5117      5120      5122      5114      5117      5120      5123
      5115      5114      5117      5118      5115      5114      5117      5119
      5115      5114      5117      5120      5116      5114      5117      5118
      5116      5114      5117      5119      5116      5114      5117      5120
      5117      5120      5123      5124      5117      5120      5123      5125
      5117      5120      5123      5126      5118      5117      5120      5121
      5118      5117      5120      5122      5118      5117      5120      5123
      5119      5117      5120      5121      5119      5117      5120      5122
      5119      5117      5120      5123      5120      5123      5126      5127
      5120      5123      5126      5128      5120      5123      5126      5129
      5121      5120      5123      5124      5121      5120      5123      5125
      5121      5120      5123      5126      5122      5120      5123      5124
      5122      5120      5123      5125      5122      5120      5123      5126
      5124      5123      5126      5127      5124      5123      5126      5128
      5124      5123      5126      5129      5125      5123      5126      5127
      5125      5123      5126      5128      5125      5123      5126      5129
      5130      5133      5136      5137      5130      5133      5136      5138
      5130      5133      5136      5139      5131      5130      5133      5134
      5131      5130      5133      5135      5131      5130      5133      5136
      5132      5130      5133      5134      5132      5130      5133      5135
      5132      5130      5133      5136      5133      5136      5139      5140
      5133      5136      5139      5141      5133      5136      5139      5142
      5134      5133      5136      5137      5134      5133      5136      5138
      5134      5133      5136      5139      5135      5133      5136      5137
      5135      5133      5136      5138      5135      5133      5136      5139
      5136      5139      5142      5143      5136      5139      5142      5144
      5136      5139      5142      5145      5137      5136      5139      5140
      5137      5136      5139      5141      5137      5136      5139      5142
      5138      5136      5139      5140      5138      5136      5139      5141
      5138      5136      5139      5142      5139      5142      5145      5146
      5139      5142      5145      5147      5139      5142      5145      5148
      5140      5139      5142      5143      5140      5139      5142      5144
      5140      5139      5142      5145      5141      5139      5142      5143
      5141      5139      5142      5144      5141      5139      5142      5145
      5142      5145      5148      5149      5142      5145      5148      5150
      5142      5145      5148      5151      5143      5142      5145      5146
      5143      5142      5145      5147      5143      5142      5145      5148
      5144      5142      5145      5146      5144      5142      5145      5147
      5144      5142      5145      5148      5145      5148      5151      5152
      5145      5148      5151      5153      5145      5148      5151      5154
      5146      5145      5148      5149      5146      5145      5148      5150
      5146      5145      5148      5151      5147      5145      5148      5149
      5147      5145      5148      5150      5147      5145      5148      5151
      5148      5151      5154      5155      5148      5151      5154      5156
      5148      5151      5154      5157      5149      5148      5151      5152
      5149      5148      5151      5153      5149      5148      5151      5154
      5150      5148      5151      5152      5150      5148      5151      5153
      5150      5148      5151      5154      5151      5154      5157      5158
      5151      5154      5157      5159      5151      5154      5157      5160
      5152      5151      5154      5155      5152      5151      5154      5156
      5152      5151      5154      5157      5153      5151      5154      5155
      5153      5151      5154      5156      5153      5151      5154      5157
      5154      5157      5160      5161      5154      5157      5160      5162
      5154      5157      5160      5163      5155      5154      5157      5158
      5155      5154      5157      5159      5155      5154      5157      5160
      5156      5154      5157      5158      5156      5154      5157      5159
      5156      5154      5157      5160      5157      5160      5163      5164
      5157      5160      5163      5165      5157      5160      5163      5166
      5158      5157      5160      5161      5158      5157      5160      5162
      5158      5157      5160      5163      5159      5157      5160      5161
      5159      5157      5160      5162      5159      5157      5160      5163
      5160      5163      5166      5167      5160      5163      5166      5168
      5160      5163      5166      5169      5161      5160      5163      5164
      5161      5160      5163      5165      5161      5160      5163      5166
      5162      5160      5163      5164      5162      5160      5163      5165
      5162      5160      5163      5166      5163      5166      5169      5170
      5163      5166      5169      5171      5163      5166      5169      5172
      5164      5163      5166      5167      5164      5163      5166      5168
      5164      5163      5166      5169      5165      5163      5166      5167
      5165      5163      5166      5168      5165      5163      5166      5169
      5167      5166      5169      5170      5167      5166      5169      5171
      5167      5166      5169      5172      5168      5166      5169      5170
      5168      5166      5169      5171      5168      5166      5169      5172
      5173      5174      5189      5190      5173      5174      5189      5191
      5173      5174      5189      5195      5174      5173      5177      5178
      5174      5173      5177      5179      5174      5173      5177      5180
      5174      5173      5181      5182      5174      5173      5181      5183
      5174      5173      5181      5184      5174      5173      5185      5186
      5174      5173      5185      5187      5174      5173      5185      5188
      5174      5189      5195      5192      5175      5174      5173      5177
      5175      5174      5173      5181      5175      5174      5173      5185
      5175      5174      5189      5190      5175      5174      5189      5191
      5175      5174      5189      5195      5176      5174      5173      5177
      5176      5174      5173      5181      5176      5174      5173      5185
      5176      5174      5189      5190      5176      5174      5189      5191
      5176      5174      5189      5195      5177      5173      5174      5189
      5177      5173      5181      5182      5177      5173      5181      5183
      5177      5173      5181      5184      5177      5173      5185      5186
      5177      5173      5185      5187      5177      5173      5185      5188
      5178      5177      5173      5181      5178      5177      5173      5185
      5179      5177      5173      5181      5179      5177      5173      5185
      5180      5177      5173      5181      5180      5177      5173      5185
      5181      5173      5174      5189      5181      5173      5185      5186
      5181      5173      5185      5187      5181      5173      5185      5188
      5182      5181      5173      5185      5183      5181      5173      5185
      5184      5181      5173      5185      5185      5173      5174      5189
      5189      5195      5192      5193      5189      5195      5192      5194
      5189      5195      5192      5196      5190      5189      5195      5192
      5191      5189      5195      5192      5192      5196      5197      5198
      5192      5196      5197      5199      5192      5196      5197      5200
      5193      5192      5196      5197      5194      5192      5196      5197
      5195      5192      5196      5197      5196      5197      5200      5201
      5196      5197      5200      5202      5196      5197      5200      5208
      5197      5200      5202      5203      5197      5200      5208      5209
      5197      5200      5208      5210      5197      5200      5208      5211
      5198      5197      5200      5201      5198      5197      5200      5202
      5198      5197      5200      5208      5199      5197      5200      5201
      5199      5197      5200      5202      5199      5197      5200      5208
      5200      5202      5203      5204      5200      5202      5203      5205
      5200      5208      5211      5212      5201      5200      5202      5203
      5201      5200      5208      5209      5201      5200      5208      5210
      5201      5200      5208      5211      5202      5200      5208      5209
      5202      5200      5208      5210      5202      5200      5208      5211
      5202      5203      5205      5206      5202      5203      5205      5207
      5202      5203      5205      5217      5203      5202      5200      5208
      5203      5205      5217      5218      5203      5205      5217      5219
      5203      5205      5217      5220      5204      5203      5205      5206
      5204      5203      5205      5207      5204      5203      5205      5217
      5205      5217      5220      5221      5205      5217      5220      5222
      5205      5217      5220      5223      5206      5205      5217      5218
      5206      5205      5217      5219      5206      5205      5217      5220
      5207      5205      5217      5218      5207      5205      5217      5219
      5207      5205      5217      5220      5208      5211      5212      5213
      5208      5211      5212      5214      5209      5208      5211      5212
      5210      5208      5211      5212      5211      5212      5214      5215
      5211      5212      5214      5216      5211      5212      5214      5264
      5212      5214      5264      5265      5212      5214      5264      5266
      5212      5214      5264      5267      5213      5212      5214      5215
      5213      5212      5214      5216      5213      5212      5214      5264
      5214      5264      5267      5268      5214      5264      5267      5269
      5214      5264      5267      5270      5215      5214      5264      5265
      5215      5214      5264      5266      5215      5214      5264      5267
      5216      5214      5264      5265      5216      5214      5264      5266
      5216      5214      5264      5267      5217      5220      5223      5224
      5217      5220      5223      5225      5217      5220      5223      5226
      5218      5217      5220      5221      5218      5217      5220      5222
      5218      5217      5220      5223      5219      5217      5220      5221
      5219      5217      5220      5222      5219      5217      5220      5223
      5220      5223      5226      5227      5220      5223      5226      5228
      5220      5223      5226      5229      5221      5220      5223      5224
      5221      5220      5223      5225      5221      5220      5223      5226
      5222      5220      5223      5224      5222      5220      5223      5225
      5222      5220      5223      5226      5223      5226      5229      5230
      5223      5226      5229      5231      5223      5226      5229      5232
      5224      5223      5226      5227      5224      5223      5226      5228
      5224      5223      5226      5229      5225      5223      5226      5227
      5225      5223      5226      5228      5225      5223      5226      5229
      5226      5229      5232      5233      5226      5229      5232      5234
      5226      5229      5232      5235      5227      5226      5229      5230
      5227      5226      5229      5231      5227      5226      5229      5232
      5228      5226      5229      5230      5228      5226      5229      5231
      5228      5226      5229      5232      5229      5232      5235      5236
      5229      5232      5235      5237      5230      5229      5232      5233
      5230      5229      5232      5234      5230      5229      5232      5235
      5231      5229      5232      5233      5231      5229      5232      5234
      5231      5229      5232      5235      5232      5235      5237      5238
      5232      5235      5237      5239      5233      5232      5235      5236
      5233      5232      5235      5237      5234      5232      5235      5236
      5234      5232      5235      5237      5235      5237      5239      5240
      5235      5237      5239      5241      5235      5237      5239      5242
      5236      5235      5237      5238      5236      5235      5237      5239
      5237      5239      5242      5243      5237      5239      5242      5244
      5237      5239      5242      5245      5238      5237      5239      5240
      5238      5237      5239      5241      5238      5237      5239      5242
      5239      5242      5245      5246      5239      5242      5245      5247
      5239      5242      5245      5248      5240      5239      5242      5243
      5240      5239      5242      5244      5240      5239      5242      5245
      5241      5239      5242      5243      5241      5239      5242      5244
      5241      5239      5242      5245      5242      5245      5248      5249
      5242      5245      5248      5250      5242      5245      5248      5251
      5243      5242      5245      5246      5243      5242      5245      5247
      5243      5242      5245      5248      5244      5242      5245      5246
      5244      5242      5245      5247      5244      5242      5245      5248
      5245      5248      5251      5252      5245      5248      5251      5253
      5245      5248      5251      5254      5246      5245      5248      5249
      5246      5245      5248      5250      5246      5245      5248      5251
      5247      5245      5248      5249      5247      5245      5248      5250
      5247      5245      5248      5251      5248      5251      5254      5255
      5248      5251      5254      5256      5248      5251      5254      5257
      5249      5248      5251      5252      5249      5248      5251      5253
      5249      5248      5251      5254      5250      5248      5251      5252
      5250      5248      5251      5253      5250      5248      5251      5254
      5251      5254      5257      5258      5251      5254      5257      5259
      5251      5254      5257      5260      5252      5251      5254      5255
      5252      5251      5254      5256      5252      5251      5254      5257
      5253      5251      5254      5255      5253      5251      5254      5256
      5253      5251      5254      5257      5254      5257      5260      5261
      5254      5257      5260      5262      5254      5257      5260      5263
      5255      5254      5257      5258      5255      5254      5257      5259
      5255      5254      5257      5260      5256      5254      5257      5258
      5256      5254      5257      5259      5256      5254      5257      5260
      5258      5257      5260      5261      5258      5257      5260      5262
      5258      5257      5260      5263      5259      5257      5260      5261
      5259      5257      5260      5262      5259      5257      5260      5263
      5264      5267      5270      5271      5264      5267      5270      5272
      5264      5267      5270      5273      5265      5264      5267      5268
      5265      5264      5267      5269      5265      5264      5267      5270
      5266      5264      5267      5268      5266      5264      5267      5269
      5266      5264      5267      5270      5267      5270      5273      5274
      5267      5270      5273      5275      5267      5270      5273      5276
      5268      5267      5270      5271      5268      5267      5270      5272
      5268      5267      5270      5273      5269      5267      5270      5271
      5269      5267      5270      5272      5269      5267      5270      5273
      5270      5273      5276      5277      5270      5273      5276      5278
      5270      5273      5276      5279      5271      5270      5273      5274
      5271      5270      5273      5275      5271      5270      5273      5276
      5272      5270      5273      5274      5272      5270      5273      5275
      5272      5270      5273      5276      5273      5276      5279      5280
      5273      5276      5279      5281      5273      5276      5279      5282
      5274      5273      5276      5277      5274      5273      5276      5278
      5274      5273      5276      5279      5275      5273      5276      5277
      5275      5273      5276      5278      5275      5273      5276      5279
      5276      5279      5282      5283      5276      5279      5282      5284
      5276      5279      5282      5285      5277      5276      5279      5280
      5277      5276      5279      5281      5277      5276      5279      5282
      5278      5276      5279      5280      5278      5276      5279      5281
      5278      5276      5279      5282      5279      5282      5285      5286
      5279      5282      5285      5287      5279      5282      5285      5288
      5280      5279      5282      5283      5280      5279      5282      5284
      5280      5279      5282      5285      5281      5279      5282      5283
      5281      5279      5282      5284      5281      5279      5282      5285
      5282      5285      5288      5289      5282      5285      5288      5290
      5282      5285      5288      5291      5283      5282      5285      5286
      5283      5282      5285      5287      5283      5282      5285      5288
      5284      5282      5285      5286      5284      5282      5285      5287
      5284      5282      5285      5288      5285      5288      5291      5292
      5285      5288      5291      5293      5285      5288      5291      5294
      5286      5285      5288      5289      5286      5285      5288      5290
      5286      5285      5288      5291      5287      5285      5288      5289
      5287      5285      5288      5290      5287      5285      5288      5291
      5288      5291      5294      5295      5288      5291      5294      5296
      5288      5291      5294      5297      5289      5288      5291      5292
      5289      5288      5291      5293      5289      5288      5291      5294
      5290      5288      5291      5292      5290      5288      5291      5293
      5290      5288      5291      5294      5291      5294      5297      5298
      5291      5294      5297      5299      5291      5294      5297      5300
      5292      5291      5294      5295      5292      5291      5294      5296
      5292      5291      5294      5297      5293      5291      5294      5295
      5293      5291      5294      5296      5293      5291      5294      5297
      5294      5297      5300      5301      5294      5297      5300      5302
      5294      5297      5300      5303      5295      5294      5297      5298
      5295      5294      5297      5299      5295      5294      5297      5300
      5296      5294      5297      5298      5296      5294      5297      5299
      5296      5294      5297      5300      5297      5300      5303      5304
      5297      5300      5303      5305      5297      5300      5303      5306
      5298      5297      5300      5301      5298      5297      5300      5302
      5298      5297      5300      5303      5299      5297      5300      5301
      5299      5297      5300      5302      5299      5297      5300      5303
      5301      5300      5303      5304      5301      5300      5303      5305
      5301      5300      5303      5306      5302      5300      5303      5304
      5302      5300      5303      5305      5302      5300      5303      5306
      5307      5308      5323      5324      5307      5308      5323      5325
      5307      5308      5323      5329      5308      5307      5311      5312
      5308      5307      5311      5313      5308      5307      5311      5314
      5308      5307      5315      5316      5308      5307      5315      5317
      5308      5307      5315      5318      5308      5307      5319      5320
      5308      5307      5319      5321      5308      5307      5319      5322
      5308      5323      5329      5326      5309      5308      5307      5311
      5309      5308      5307      5315      5309      5308      5307      5319
      5309      5308      5323      5324      5309      5308      5323      5325
      5309      5308      5323      5329      5310      5308      5307      5311
      5310      5308      5307      5315      5310      5308      5307      5319
      5310      5308      5323      5324      5310      5308      5323      5325
      5310      5308      5323      5329      5311      5307      5308      5323
      5311      5307      5315      5316      5311      5307      5315      5317
      5311      5307      5315      5318      5311      5307      5319      5320
      5311      5307      5319      5321      5311      5307      5319      5322
      5312      5311      5307      5315      5312      5311      5307      5319
      5313      5311      5307      5315      5313      5311      5307      5319
      5314      5311      5307      5315      5314      5311      5307      5319
      5315      5307      5308      5323      5315      5307      5319      5320
      5315      5307      5319      5321      5315      5307      5319      5322
      5316      5315      5307      5319      5317      5315      5307      5319
      5318      5315      5307      5319      5319      5307      5308      5323
      5323      5329      5326      5327      5323      5329      5326      5328
      5323      5329      5326      5330      5324      5323      5329      5326
      5325      5323      5329      5326      5326      5330      5331      5332
      5326      5330      5331      5333      5326      5330      5331      5334
      5327      5326      5330      5331      5328      5326      5330      5331
      5329      5326      5330      5331      5330      5331      5334      5335
      5330      5331      5334      5336      5330      5331      5334      5342
      5331      5334      5336      5337      5331      5334      5342      5343
      5331      5334      5342      5344      5331      5334      5342      5345
      5332      5331      5334      5335      5332      5331      5334      5336
      5332      5331      5334      5342      5333      5331      5334      5335
      5333      5331      5334      5336      5333      5331      5334      5342
      5334      5336      5337      5338      5334      5336      5337      5339
      5334      5342      5345      5346      5335      5334      5336      5337
      5335      5334      5342      5343      5335      5334      5342      5344
      5335      5334      5342      5345      5336      5334      5342      5343
      5336      5334      5342      5344      5336      5334      5342      5345
      5336      5337      5339      5340      5336      5337      5339      5341
      5336      5337      5339      5351      5337      5336      5334      5342
      5337      5339      5351      5352      5337      5339      5351      5353
      5337      5339      5351      5354      5338      5337      5339      5340
      5338      5337      5339      5341      5338      5337      5339      5351
      5339      5351      5354      5355      5339      5351      5354      5356
      5339      5351      5354      5357      5340      5339      5351      5352
      5340      5339      5351      5353      5340      5339      5351      5354
      5341      5339      5351      5352      5341      5339      5351      5353
      5341      5339      5351      5354      5342      5345      5346      5347
      5342      5345      5346      5348      5343      5342      5345      5346
      5344      5342      5345      5346      5345      5346      5348      5349
      5345      5346      5348      5350      5345      5346      5348      5398
      5346      5348      5398      5399      5346      5348      5398      5400
      5346      5348      5398      5401      5347      5346      5348      5349
      5347      5346      5348      5350      5347      5346      5348      5398
      5348      5398      5401      5402      5348      5398      5401      5403
      5348      5398      5401      5404      5349      5348      5398      5399
      5349      5348      5398      5400      5349      5348      5398      5401
      5350      5348      5398      5399      5350      5348      5398      5400
      5350      5348      5398      5401      5351      5354      5357      5358
      5351      5354      5357      5359      5351      5354      5357      5360
      5352      5351      5354      5355      5352      5351      5354      5356
      5352      5351      5354      5357      5353      5351      5354      5355
      5353      5351      5354      5356      5353      5351      5354      5357
      5354      5357      5360      5361      5354      5357      5360      5362
      5354      5357      5360      5363      5355      5354      5357      5358
      5355      5354      5357      5359      5355      5354      5357      5360
      5356      5354      5357      5358      5356      5354      5357      5359
      5356      5354      5357      5360      5357      5360      5363      5364
      5357      5360      5363      5365      5357      5360      5363      5366
      5358      5357      5360      5361      5358      5357      5360      5362
      5358      5357      5360      5363      5359      5357      5360      5361
      5359      5357      5360      5362      5359      5357      5360      5363
      5360      5363      5366      5367      5360      5363      5366      5368
      5360      5363      5366      5369      5361      5360      5363      5364
      5361      5360      5363      5365      5361      5360      5363      5366
      5362      5360      5363      5364      5362      5360      5363      5365
      5362      5360      5363      5366      5363      5366      5369      5370
      5363      5366      5369      5371      5364      5363      5366      5367
      5364      5363      5366      5368      5364      5363      5366      5369
      5365      5363      5366      5367      5365      5363      5366      5368
      5365      5363      5366      5369      5366      5369      5371      5372
      5366      5369      5371      5373      5367      5366      5369      5370
      5367      5366      5369      5371      5368      5366      5369      5370
      5368      5366      5369      5371      5369      5371      5373      5374
      5369      5371      5373      5375      5369      5371      5373      5376
      5370      5369      5371      5372      5370      5369      5371      5373
      5371      5373      5376      5377      5371      5373      5376      5378
      5371      5373      5376      5379      5372      5371      5373      5374
      5372      5371      5373      5375      5372      5371      5373      5376
      5373      5376      5379      5380      5373      5376      5379      5381
      5373      5376      5379      5382      5374      5373      5376      5377
      5374      5373      5376      5378      5374      5373      5376      5379
      5375      5373      5376      5377      5375      5373      5376      5378
      5375      5373      5376      5379      5376      5379      5382      5383
      5376      5379      5382      5384      5376      5379      5382      5385
      5377      5376      5379      5380      5377      5376      5379      5381
      5377      5376      5379      5382      5378      5376      5379      5380
      5378      5376      5379      5381      5378      5376      5379      5382
      5379      5382      5385      5386      5379      5382      5385      5387
      5379      5382      5385      5388      5380      5379      5382      5383
      5380      5379      5382      5384      5380      5379      5382      5385
      5381      5379      5382      5383      5381      5379      5382      5384
      5381      5379      5382      5385      5382      5385      5388      5389
      5382      5385      5388      5390      5382      5385      5388      5391
      5383      5382      5385      5386      5383      5382      5385      5387
      5383      5382      5385      5388      5384      5382      5385      5386
      5384      5382      5385      5387      5384      5382      5385      5388
      5385      5388      5391      5392      5385      5388      5391      5393
      5385      5388      5391      5394      5386      5385      5388      5389
      5386      5385      5388      5390      5386      5385      5388      5391
      5387      5385      5388      5389      5387      5385      5388      5390
      5387      5385      5388      5391      5388      5391      5394      5395
      5388      5391      5394      5396      5388      5391      5394      5397
      5389      5388      5391      5392      5389      5388      5391      5393
      5389      5388      5391      5394      5390      5388      5391      5392
      5390      5388      5391      5393      5390      5388      5391      5394
      5392      5391      5394      5395      5392      5391      5394      5396
      5392      5391      5394      5397      5393      5391      5394      5395
      5393      5391      5394      5396      5393      5391      5394      5397
      5398      5401      5404      5405      5398      5401      5404      5406
      5398      5401      5404      5407      5399      5398      5401      5402
      5399      5398      5401      5403      5399      5398      5401      5404
      5400      5398      5401      5402      5400      5398      5401      5403
      5400      5398      5401      5404      5401      5404      5407      5408
      5401      5404      5407      5409      5401      5404      5407      5410
      5402      5401      5404      5405      5402      5401      5404      5406
      5402      5401      5404      5407      5403      5401      5404      5405
      5403      5401      5404      5406      5403      5401      5404      5407
      5404      5407      5410      5411      5404      5407      5410      5412
      5404      5407      5410      5413      5405      5404      5407      5408
      5405      5404      5407      5409      5405      5404      5407      5410
      5406      5404      5407      5408      5406      5404      5407      5409
      5406      5404      5407      5410      5407      5410      5413      5414
      5407      5410      5413      5415      5407      5410      5413      5416
      5408      5407      5410      5411      5408      5407      5410      5412
      5408      5407      5410      5413      5409      5407      5410      5411
      5409      5407      5410      5412      5409      5407      5410      5413
      5410      5413      5416      5417      5410      5413      5416      5418
      5410      5413      5416      5419      5411      5410      5413      5414
      5411      5410      5413      5415      5411      5410      5413      5416
      5412      5410      5413      5414      5412      5410      5413      5415
      5412      5410      5413      5416      5413      5416      5419      5420
      5413      5416      5419      5421      5413      5416      5419      5422
      5414      5413      5416      5417      5414      5413      5416      5418
      5414      5413      5416      5419      5415      5413      5416      5417
      5415      5413      5416      5418      5415      5413      5416      5419
      5416      5419      5422      5423      5416      5419      5422      5424
      5416      5419      5422      5425      5417      5416      5419      5420
      5417      5416      5419      5421      5417      5416      5419      5422
      5418      5416      5419      5420      5418      5416      5419      5421
      5418      5416      5419      5422      5419      5422      5425      5426
      5419      5422      5425      5427      5419      5422      5425      5428
      5420      5419      5422      5423      5420      5419      5422      5424
      5420      5419      5422      5425      5421      5419      5422      5423
      5421      5419      5422      5424      5421      5419      5422      5425
      5422      5425      5428      5429      5422      5425      5428      5430
      5422      5425      5428      5431      5423      5422      5425      5426
      5423      5422      5425      5427      5423      5422      5425      5428
      5424      5422      5425      5426      5424      5422      5425      5427
      5424      5422      5425      5428      5425      5428      5431      5432
      5425      5428      5431      5433      5425      5428      5431      5434
      5426      5425      5428      5429      5426      5425      5428      5430
      5426      5425      5428      5431      5427      5425      5428      5429
      5427      5425      5428      5430      5427      5425      5428      5431
      5428      5431      5434      5435      5428      5431      5434      5436
      5428      5431      5434      5437      5429      5428      5431      5432
      5429      5428      5431      5433      5429      5428      5431      5434
      5430      5428      5431      5432      5430      5428      5431      5433
      5430      5428      5431      5434      5431      5434      5437      5438
      5431      5434      5437      5439      5431      5434      5437      5440
      5432      5431      5434      5435      5432      5431      5434      5436
      5432      5431      5434      5437      5433      5431      5434      5435
      5433      5431      5434      5436      5433      5431      5434      5437
      5435      5434      5437      5438      5435      5434      5437      5439
      5435      5434      5437      5440      5436      5434      5437      5438
      5436      5434      5437      5439      5436      5434      5437      5440
      5441      5442      5457      5458      5441      5442      5457      5459
      5441      5442      5457      5463      5442      5441      5445      5446
      5442      5441      5445      5447      5442      5441      5445      5448
      5442      5441      5449      5450      5442      5441      5449      5451
      5442      5441      5449      5452      5442      5441      5453      5454
      5442      5441      5453      5455      5442      5441      5453      5456
      5442      5457      5463      5460      5443      5442      5441      5445
      5443      5442      5441      5449      5443      5442      5441      5453
      5443      5442      5457      5458      5443      5442      5457      5459
      5443      5442      5457      5463      5444      5442      5441      5445
      5444      5442      5441      5449      5444      5442      5441      5453
      5444      5442      5457      5458      5444      5442      5457      5459
      5444      5442      5457      5463      5445      5441      5442      5457
      5445      5441      5449      5450      5445      5441      5449      5451
      5445      5441      5449      5452      5445      5441      5453      5454
      5445      5441      5453      5455      5445      5441      5453      5456
      5446      5445      5441      5449      5446      5445      5441      5453
      5447      5445      5441      5449      5447      5445      5441      5453
      5448      5445      5441      5449      5448      5445      5441      5453
      5449      5441      5442      5457      5449      5441      5453      5454
      5449      5441      5453      5455      5449      5441      5453      5456
      5450      5449      5441      5453      5451      5449      5441      5453
      5452      5449      5441      5453      5453      5441      5442      5457
      5457      5463      5460      5461      5457      5463      5460      5462
      5457      5463      5460      5464      5458      5457      5463      5460
      5459      5457      5463      5460      5460      5464      5465      5466
      5460      5464      5465      5467      5460      5464      5465      5468
      5461      5460      5464      5465      5462      5460      5464      5465
      5463      5460      5464      5465      5464      5465      5468      5469
      5464      5465      5468      5470      5464      5465      5468      5476
      5465      5468      5470      5471      5465      5468      5476      5477
      5465      5468      5476      5478      5465      5468      5476      5479
      5466      5465      5468      5469      5466      5465      5468      5470
      5466      5465      5468      5476      5467      5465      5468      5469
      5467      5465      5468      5470      5467      5465      5468      5476
      5468      5470      5471      5472      5468      5470      5471      5473
      5468      5476      5479      5480      5469      5468      5470      5471
      5469      5468      5476      5477      5469      5468      5476      5478
      5469      5468      5476      5479      5470      5468      5476      5477
      5470      5468      5476      5478      5470      5468      5476      5479
      5470      5471      5473      5474      5470      5471      5473      5475
      5470      5471      5473      5485      5471      5470      5468      5476
      5471      5473      5485      5486      5471      5473      5485      5487
      5471      5473      5485      5488      5472      5471      5473      5474
      5472      5471      5473      5475      5472      5471      5473      5485
      5473      5485      5488      5489      5473      5485      5488      5490
      5473      5485      5488      5491      5474      5473      5485      5486
      5474      5473      5485      5487      5474      5473      5485      5488
      5475      5473      5485      5486      5475      5473      5485      5487
      5475      5473      5485      5488      5476      5479      5480      5481
      5476      5479      5480      5482      5477      5476      5479      5480
      5478      5476      5479      5480      5479      5480      5482      5483
      5479      5480      5482      5484      5479      5480      5482      5532
      5480      5482      5532      5533      5480      5482      5532      5534
      5480      5482      5532      5535      5481      5480      5482      5483
      5481      5480      5482      5484      5481      5480      5482      5532
      5482      5532      5535      5536      5482      5532      5535      5537
      5482      5532      5535      5538      5483      5482      5532      5533
      5483      5482      5532      5534      5483      5482      5532      5535
      5484      5482      5532      5533      5484      5482      5532      5534
      5484      5482      5532      5535      5485      5488      5491      5492
      5485      5488      5491      5493      5485      5488      5491      5494
      5486      5485      5488      5489      5486      5485      5488      5490
      5486      5485      5488      5491      5487      5485      5488      5489
      5487      5485      5488      5490      5487      5485      5488      5491
      5488      5491      5494      5495      5488      5491      5494      5496
      5488      5491      5494      5497      5489      5488      5491      5492
      5489      5488      5491      5493      5489      5488      5491      5494
      5490      5488      5491      5492      5490      5488      5491      5493
      5490      5488      5491      5494      5491      5494      5497      5498
      5491      5494      5497      5499      5491      5494      5497      5500
      5492      5491      5494      5495      5492      5491      5494      5496
      5492      5491      5494      5497      5493      5491      5494      5495
      5493      5491      5494      5496      5493      5491      5494      5497
      5494      5497      5500      5501      5494      5497      5500      5502
      5494      5497      5500      5503      5495      5494      5497      5498
      5495      5494      5497      5499      5495      5494      5497      5500
      5496      5494      5497      5498      5496      5494      5497      5499
      5496      5494      5497      5500      5497      5500      5503      5504
      5497      5500      5503      5505      5498      5497      5500      5501
      5498      5497      5500      5502      5498      5497      5500      5503
      5499      5497      5500      5501      5499      5497      5500      5502
      5499      5497      5500      5503      5500      5503      5505      5506
      5500      5503      5505      5507      5501      5500      5503      5504
      5501      5500      5503      5505      5502      5500      5503      5504
      5502      5500      5503      5505      5503      5505      5507      5508
      5503      5505      5507      5509      5503      5505      5507      5510
      5504      5503      5505      5506      5504      5503      5505      5507
      5505      5507      5510      5511      5505      5507      5510      5512
      5505      5507      5510      5513      5506      5505      5507      5508
      5506      5505      5507      5509      5506      5505      5507      5510
      5507      5510      5513      5514      5507      5510      5513      5515
      5507      5510      5513      5516      5508      5507      5510      5511
      5508      5507      5510      5512      5508      5507      5510      5513
      5509      5507      5510      5511      5509      5507      5510      5512
      5509      5507      5510      5513      5510      5513      5516      5517
      5510      5513      5516      5518      5510      5513      5516      5519
      5511      5510      5513      5514      5511      5510      5513      5515
      5511      5510      5513      5516      5512      5510      5513      5514
      5512      5510      5513      5515      5512      5510      5513      5516
      5513      5516      5519      5520      5513      5516      5519      5521
      5513      5516      5519      5522      5514      5513      5516      5517
      5514      5513      5516      5518      5514      5513      5516      5519
      5515      5513      5516      5517      5515      5513      5516      5518
      5515      5513      5516      5519      5516      5519      5522      5523
      5516      5519      5522      5524      5516      5519      5522      5525
      5517      5516      5519      5520      5517      5516      5519      5521
      5517      5516      5519      5522      5518      5516      5519      5520
      5518      5516      5519      5521      5518      5516      5519      5522
      5519      5522      5525      5526      5519      5522      5525      5527
      5519      5522      5525      5528      5520      5519      5522      5523
      5520      5519      5522      5524      5520      5519      5522      5525
      5521      5519      5522      5523      5521      5519      5522      5524
      5521      5519      5522      5525      5522      5525      5528      5529
      5522      5525      5528      5530      5522      5525      5528      5531
      5523      5522      5525      5526      5523      5522      5525      5527
      5523      5522      5525      5528      5524      5522      5525      5526
      5524      5522      5525      5527      5524      5522      5525      5528
      5526      5525      5528      5529      5526      5525      5528      5530
      5526      5525      5528      5531      5527      5525      5528      5529
      5527      5525      5528      5530      5527      5525      5528      5531
      5532      5535      5538      5539      5532      5535      5538      5540
      5532      5535      5538      5541      5533      5532      5535      5536
      5533      5532      5535      5537      5533      5532      5535      5538
      5534      5532      5535      5536      5534      5532      5535      5537
      5534      5532      5535      5538      5535      5538      5541      5542
      5535      5538      5541      5543      5535      5538      5541      5544
      5536      5535      5538      5539      5536      5535      5538      5540
      5536      5535      5538      5541      5537      5535      5538      5539
      5537      5535      5538      5540      5537      5535      5538      5541
      5538      5541      5544      5545      5538      5541      5544      5546
      5538      5541      5544      5547      5539      5538      5541      5542
      5539      5538      5541      5543      5539      5538      5541      5544
      5540      5538      5541      5542      5540      5538      5541      5543
      5540      5538      5541      5544      5541      5544      5547      5548
      5541      5544      5547      5549      5541      5544      5547      5550
      5542      5541      5544      5545      5542      5541      5544      5546
      5542      5541      5544      5547      5543      5541      5544      5545
      5543      5541      5544      5546      5543      5541      5544      5547
      5544      5547      5550      5551      5544      5547      5550      5552
      5544      5547      5550      5553      5545      5544      5547      5548
      5545      5544      5547      5549      5545      5544      5547      5550
      5546      5544      5547      5548      5546      5544      5547      5549
      5546      5544      5547      5550      5547      5550      5553      5554
      5547      5550      5553      5555      5547      5550      5553      5556
      5548      5547      5550      5551      5548      5547      5550      5552
      5548      5547      5550      5553      5549      5547      5550      5551
      5549      5547      5550      5552      5549      5547      5550      5553
      5550      5553      5556      5557      5550      5553      5556      5558
      5550      5553      5556      5559      5551      5550      5553      5554
      5551      5550      5553      5555      5551      5550      5553      5556
      5552      5550      5553      5554      5552      5550      5553      5555
      5552      5550      5553      5556      5553      5556      5559      5560
      5553      5556      5559      5561      5553      5556      5559      5562
      5554      5553      5556      5557      5554      5553      5556      5558
      5554      5553      5556      5559      5555      5553      5556      5557
      5555      5553      5556      5558      5555      5553      5556      5559
      5556      5559      5562      5563      5556      5559      5562      5564
      5556      5559      5562      5565      5557      5556      5559      5560
      5557      5556      5559      5561      5557      5556      5559      5562
      5558      5556      5559      5560      5558      5556      5559      5561
      5558      5556      5559      5562      5559      5562      5565      5566
      5559      5562      5565      5567      5559      5562      5565      5568
      5560      5559      5562      5563      5560      5559      5562      5564
      5560      5559      5562      5565      5561      5559      5562      5563
      5561      5559      5562      5564      5561      5559      5562      5565
      5562      5565      5568      5569      5562      5565      5568      5570
      5562      5565      5568      5571      5563      5562      5565      5566
      5563      5562      5565      5567      5563      5562      5565      5568
      5564      5562      5565      5566      5564      5562      5565      5567
      5564      5562      5565      5568      5565      5568      5571      5572
      5565      5568      5571      5573      5565      5568      5571      5574
      5566      5565      5568      5569      5566      5565      5568      5570
      5566      5565      5568      5571      5567      5565      5568      5569
      5567      5565      5568      5570      5567      5565      5568      5571
      5569      5568      5571      5572      5569      5568      5571      5573
      5569      5568      5571      5574      5570      5568      5571      5572
      5570      5568      5571      5573      5570      5568      5571      5574
      5575      5576      5591      5592      5575      5576      5591      5593
      5575      5576      5591      5597      5576      5575      5579      5580
      5576      5575      5579      5581      5576      5575      5579      5582
      5576      5575      5583      5584      5576      5575      5583      5585
      5576      5575      5583      5586      5576      5575      5587      5588
      5576      5575      5587      5589      5576      5575      5587      5590
      5576      5591      5597      5594      5577      5576      5575      5579
      5577      5576      5575      5583      5577      5576      5575      5587
      5577      5576      5591      5592      5577      5576      5591      5593
      5577      5576      5591      5597      5578      5576      5575      5579
      5578      5576      5575      5583      5578      5576      5575      5587
      5578      5576      5591      5592      5578      5576      5591      5593
      5578      5576      5591      5597      5579      5575      5576      5591
      5579      5575      5583      5584      5579      5575      5583      5585
      5579      5575      5583      5586      5579      5575      5587      5588
      5579      5575      5587      5589      5579      5575      5587      5590
      5580      5579      5575      5583      5580      5579      5575      5587
      5581      5579      5575      5583      5581      5579      5575      5587
      5582      5579      5575      5583      5582      5579      5575      5587
      5583      5575      5576      5591      5583      5575      5587      5588
      5583      5575      5587      5589      5583      5575      5587      5590
      5584      5583      5575      5587      5585      5583      5575      5587
      5586      5583      5575      5587      5587      5575      5576      5591
      5591      5597      5594      5595      5591      5597      5594      5596
      5591      5597      5594      5598      5592      5591      5597      5594
      5593      5591      5597      5594      5594      5598      5599      5600
      5594      5598      5599      5601      5594      5598      5599      5602
      5595      5594      5598      5599      5596      5594      5598      5599
      5597      5594      5598      5599      5598      5599      5602      5603
      5598      5599      5602      5604      5598      5599      5602      5610
      5599      5602      5604      5605      5599      5602      5610      5611
      5599      5602      5610      5612      5599      5602      5610      5613
      5600      5599      5602      5603      5600      5599      5602      5604
      5600      5599      5602      5610      5601      5599      5602      5603
      5601      5599      5602      5604      5601      5599      5602      5610
      5602      5604      5605      5606      5602      5604      5605      5607
      5602      5610      5613      5614      5603      5602      5604      5605
      5603      5602      5610      5611      5603      5602      5610      5612
      5603      5602      5610      5613      5604      5602      5610      5611
      5604      5602      5610      5612      5604      5602      5610      5613
      5604      5605      5607      5608      5604      5605      5607      5609
      5604      5605      5607      5619      5605      5604      5602      5610
      5605      5607      5619      5620      5605      5607      5619      5621
      5605      5607      5619      5622      5606      5605      5607      5608
      5606      5605      5607      5609      5606      5605      5607      5619
      5607      5619      5622      5623      5607      5619      5622      5624
      5607      5619      5622      5625      5608      5607      5619      5620
      5608      5607      5619      5621      5608      5607      5619      5622
      5609      5607      5619      5620      5609      5607      5619      5621
      5609      5607      5619      5622      5610      5613      5614      5615
      5610      5613      5614      5616      5611      5610      5613      5614
      5612      5610      5613      5614      5613      5614      5616      5617
      5613      5614      5616      5618      5613      5614      5616      5666
      5614      5616      5666      5667      5614      5616      5666      5668
      5614      5616      5666      5669      5615      5614      5616      5617
      5615      5614      5616      5618      5615      5614      5616      5666
      5616      5666      5669      5670      5616      5666      5669      5671
      5616      5666      5669      5672      5617      5616      5666      5667
      5617      5616      5666      5668      5617      5616      5666      5669
      5618      5616      5666      5667      5618      5616      5666      5668
      5618      5616      5666      5669      5619      5622      5625      5626
      5619      5622      5625      5627      5619      5622      5625      5628
      5620      5619      5622      5623      5620      5619      5622      5624
      5620      5619      5622      5625      5621      5619      5622      5623
      5621      5619      5622      5624      5621      5619      5622      5625
      5622      5625      5628      5629      5622      5625      5628      5630
      5622      5625      5628      5631      5623      5622      5625      5626
      5623      5622      5625      5627      5623      5622      5625      5628
      5624      5622      5625      5626      5624      5622      5625      5627
      5624      5622      5625      5628      5625      5628      5631      5632
      5625      5628      5631      5633      5625      5628      5631      5634
      5626      5625      5628      5629      5626      5625      5628      5630
      5626      5625      5628      5631      5627      5625      5628      5629
      5627      5625      5628      5630      5627      5625      5628      5631
      5628      5631      5634      5635      5628      5631      5634      5636
      5628      5631      5634      5637      5629      5628      5631      5632
      5629      5628      5631      5633      5629      5628      5631      5634
      5630      5628      5631      5632      5630      5628      5631      5633
      5630      5628      5631      5634      5631      5634      5637      5638
      5631      5634      5637      5639      5632      5631      5634      5635
      5632      5631      5634      5636      5632      5631      5634      5637
      5633      5631      5634      5635      5633      5631      5634      5636
      5633      5631      5634      5637      5634      5637      5639      5640
      5634      5637      5639      5641      5635      5634      5637      5638
      5635      5634      5637      5639      5636      5634      5637      5638
      5636      5634      5637      5639      5637      5639      5641      5642
      5637      5639      5641      5643      5637      5639      5641      5644
      5638      5637      5639      5640      5638      5637      5639      5641
      5639      5641      5644      5645      5639      5641      5644      5646
      5639      5641      5644      5647      5640      5639      5641      5642
      5640      5639      5641      5643      5640      5639      5641      5644
      5641      5644      5647      5648      5641      5644      5647      5649
      5641      5644      5647      5650      5642      5641      5644      5645
      5642      5641      5644      5646      5642      5641      5644      5647
      5643      5641      5644      5645      5643      5641      5644      5646
      5643      5641      5644      5647      5644      5647      5650      5651
      5644      5647      5650      5652      5644      5647      5650      5653
      5645      5644      5647      5648      5645      5644      5647      5649
      5645      5644      5647      5650      5646      5644      5647      5648
      5646      5644      5647      5649      5646      5644      5647      5650
      5647      5650      5653      5654      5647      5650      5653      5655
      5647      5650      5653      5656      5648      5647      5650      5651
      5648      5647      5650      5652      5648      5647      5650      5653
      5649      5647      5650      5651      5649      5647      5650      5652
      5649      5647      5650      5653      5650      5653      5656      5657
      5650      5653      5656      5658      5650      5653      5656      5659
      5651      5650      5653      5654      5651      5650      5653      5655
      5651      5650      5653      5656      5652      5650      5653      5654
      5652      5650      5653      5655      5652      5650      5653      5656
      5653      5656      5659      5660      5653      5656      5659      5661
      5653      5656      5659      5662      5654      5653      5656      5657
      5654      5653      5656      5658      5654      5653      5656      5659
      5655      5653      5656      5657      5655      5653      5656      5658
      5655      5653      5656      5659      5656      5659      5662      5663
      5656      5659      5662      5664      5656      5659      5662      5665
      5657      5656      5659      5660      5657      5656      5659      5661
      5657      5656      5659      5662      5658      5656      5659      5660
      5658      5656      5659      5661      5658      5656      5659      5662
      5660      5659      5662      5663      5660      5659      5662      5664
      5660      5659      5662      5665      5661      5659      5662      5663
      5661      5659      5662      5664      5661      5659      5662      5665
      5666      5669      5672      5673      5666      5669      5672      5674
      5666      5669      5672      5675      5667      5666      5669      5670
      5667      5666      5669      5671      5667      5666      5669      5672
      5668      5666      5669      5670      5668      5666      5669      5671
      5668      5666      5669      5672      5669      5672      5675      5676
      5669      5672      5675      5677      5669      5672      5675      5678
      5670      5669      5672      5673      5670      5669      5672      5674
      5670      5669      5672      5675      5671      5669      5672      5673
      5671      5669      5672      5674      5671      5669      5672      5675
      5672      5675      5678      5679      5672      5675      5678      5680
      5672      5675      5678      5681      5673      5672      5675      5676
      5673      5672      5675      5677      5673      5672      5675      5678
      5674      5672      5675      5676      5674      5672      5675      5677
      5674      5672      5675      5678      5675      5678      5681      5682
      5675      5678      5681      5683      5675      5678      5681      5684
      5676      5675      5678      5679      5676      5675      5678      5680
      5676      5675      5678      5681      5677      5675      5678      5679
      5677      5675      5678      5680      5677      5675      5678      5681
      5678      5681      5684      5685      5678      5681      5684      5686
      5678      5681      5684      5687      5679      5678      5681      5682
      5679      5678      5681      5683      5679      5678      5681      5684
      5680      5678      5681      5682      5680      5678      5681      5683
      5680      5678      5681      5684      5681      5684      5687      5688
      5681      5684      5687      5689      5681      5684      5687      5690
      5682      5681      5684      5685      5682      5681      5684      5686
      5682      5681      5684      5687      5683      5681      5684      5685
      5683      5681      5684      5686      5683      5681      5684      5687
      5684      5687      5690      5691      5684      5687      5690      5692
      5684      5687      5690      5693      5685      5684      5687      5688
      5685      5684      5687      5689      5685      5684      5687      5690
      5686      5684      5687      5688      5686      5684      5687      5689
      5686      5684      5687      5690      5687      5690      5693      5694
      5687      5690      5693      5695      5687      5690      5693      5696
      5688      5687      5690      5691      5688      5687      5690      5692
      5688      5687      5690      5693      5689      5687      5690      5691
      5689      5687      5690      5692      5689      5687      5690      5693
      5690      5693      5696      5697      5690      5693      5696      5698
      5690      5693      5696      5699      5691      5690      5693      5694
      5691      5690      5693      5695      5691      5690      5693      5696
      5692      5690      5693      5694      5692      5690      5693      5695
      5692      5690      5693      5696      5693      5696      5699      5700
      5693      5696      5699      5701      5693      5696      5699      5702
      5694      5693      5696      5697      5694      5693      5696      5698
      5694      5693      5696      5699      5695      5693      5696      5697
      5695      5693      5696      5698      5695      5693      5696      5699
      5696      5699      5702      5703      5696      5699      5702      5704
      5696      5699      5702      5705      5697      5696      5699      5700
      5697      5696      5699      5701      5697      5696      5699      5702
      5698      5696      5699      5700      5698      5696      5699      5701
      5698      5696      5699      5702      5699      5702      5705      5706
      5699      5702      5705      5707      5699      5702      5705      5708
      5700      5699      5702      5703      5700      5699      5702      5704
      5700      5699      5702      5705      5701      5699      5702      5703
      5701      5699      5702      5704      5701      5699      5702      5705
      5703      5702      5705      5706      5703      5702      5705      5707
      5703      5702      5705      5708      5704      5702      5705      5706
      5704      5702      5705      5707      5704      5702      5705      5708
      5709      5713      5715      5716      5709      5713      5715      5717
      5709      5713      5718      5719      5709      5713      5718      5720
      5709      5713      5718      5724      5710      5709      5713      5714
      5710      5709      5713      5715      5710      5709      5713      5718
      5711      5709      5713      5714      5711      5709      5713      5715
      5711      5709      5713      5718      5712      5709      5713      5714
      5712      5709      5713      5715      5712      5709      5713      5718
      5713      5718      5724      5721      5714      5713      5715      5716
      5714      5713      5715      5717      5714      5713      5718      5719
      5714      5713      5718      5720      5714      5713      5718      5724
      5715      5713      5718      5719      5715      5713      5718      5720
      5715      5713      5718      5724      5716      5715      5713      5718
      5717      5715      5713      5718      5718      5724      5721      5722
      5718      5724      5721      5723      5718      5724      5721      5725
      5719      5718      5724      5721      5720      5718      5724      5721
      5721      5725      5726      5727      5721      5725      5726      5728
      5721      5725      5726      5729      5722      5721      5725      5726
      5723      5721      5725      5726      5724      5721      5725      5726
      5725      5726      5729      5730      5725      5726      5729      5731
      5725      5726      5729      5737      5726      5729      5731      5732
      5726      5729      5737      5738      5726      5729      5737      5739
      5726      5729      5737      5740      5727      5726      5729      5730
      5727      5726      5729      5731      5727      5726      5729      5737
      5728      5726      5729      5730      5728      5726      5729      5731
      5728      5726      5729      5737      5729      5731      5732      5733
      5729      5731      5732      5734      5729      5737      5740      5741
      5730      5729      5731      5732      5730      5729      5737      5738
      5730      5729      5737      5739      5730      5729      5737      5740
      5731      5729      5737      5738      5731      5729      5737      5739
      5731      5729      5737      5740      5731      5732      5734      5735
      5731      5732      5734      5736      5731      5732      5734      5746
      5732      5731      5729      5737      5732      5734      5746      5747
      5732      5734      5746      5748      5732      5734      5746      5749
      5733      5732      5734      5735      5733      5732      5734      5736
      5733      5732      5734      5746      5734      5746      5749      5750
      5734      5746      5749      5751      5734      5746      5749      5752
      5735      5734      5746      5747      5735      5734      5746      5748
      5735      5734      5746      5749      5736      5734      5746      5747
      5736      5734      5746      5748      5736      5734      5746      5749
      5737      5740      5741      5742      5737      5740      5741      5743
      5738      5737      5740      5741      5739      5737      5740      5741
      5740      5741      5743      5744      5740      5741      5743      5745
      5740      5741      5743      5793      5741      5743      5793      5794
      5741      5743      5793      5795      5741      5743      5793      5796
      5742      5741      5743      5744      5742      5741      5743      5745
      5742      5741      5743      5793      5743      5793      5796      5797
      5743      5793      5796      5798      5743      5793      5796      5799
      5744      5743      5793      5794      5744      5743      5793      5795
      5744      5743      5793      5796      5745      5743      5793      5794
      5745      5743      5793      5795      5745      5743      5793      5796
      5746      5749      5752      5753      5746      5749      5752      5754
      5746      5749      5752      5755      5747      5746      5749      5750
      5747      5746      5749      5751      5747      5746      5749      5752
      5748      5746      5749      5750      5748      5746      5749      5751
      5748      5746      5749      5752      5749      5752      5755      5756
      5749      5752      5755      5757      5749      5752      5755      5758
      5750      5749      5752      5753      5750      5749      5752      5754
      5750      5749      5752      5755      5751      5749      5752      5753
      5751      5749      5752      5754      5751      5749      5752      5755
      5752      5755      5758      5759      5752      5755      5758      5760
      5752      5755      5758      5761      5753      5752      5755      5756
      5753      5752      5755      5757      5753      5752      5755      5758
      5754      5752      5755      5756      5754      5752      5755      5757
      5754      5752      5755      5758      5755      5758      5761      5762
      5755      5758      5761      5763      5755      5758      5761      5764
      5756      5755      5758      5759      5756      5755      5758      5760
      5756      5755      5758      5761      5757      5755      5758      5759
      5757      5755      5758      5760      5757      5755      5758      5761
      5758      5761      5764      5765      5758      5761      5764      5766
      5759      5758      5761      5762      5759      5758      5761      5763
      5759      5758      5761      5764      5760      5758      5761      5762
      5760      5758      5761      5763      5760      5758      5761      5764
      5761      5764      5766      5767      5761      5764      5766      5768
      5762      5761      5764      5765      5762      5761      5764      5766
      5763      5761      5764      5765      5763      5761      5764      5766
      5764      5766      5768      5769      5764      5766      5768      5770
      5764      5766      5768      5771      5765      5764      5766      5767
      5765      5764      5766      5768      5766      5768      5771      5772
      5766      5768      5771      5773      5766      5768      5771      5774
      5767      5766      5768      5769      5767      5766      5768      5770
      5767      5766      5768      5771      5768      5771      5774      5775
      5768      5771      5774      5776      5768      5771      5774      5777
      5769      5768      5771      5772      5769      5768      5771      5773
      5769      5768      5771      5774      5770      5768      5771      5772
      5770      5768      5771      5773      5770      5768      5771      5774
      5771      5774      5777      5778      5771      5774      5777      5779
      5771      5774      5777      5780      5772      5771      5774      5775
      5772      5771      5774      5776      5772      5771      5774      5777
      5773      5771      5774      5775      5773      5771      5774      5776
      5773      5771      5774      5777      5774      5777      5780      5781
      5774      5777      5780      5782      5774      5777      5780      5783
      5775      5774      5777      5778      5775      5774      5777      5779
      5775      5774      5777      5780      5776      5774      5777      5778
      5776      5774      5777      5779      5776      5774      5777      5780
      5777      5780      5783      5784      5777      5780      5783      5785
      5777      5780      5783      5786      5778      5777      5780      5781
      5778      5777      5780      5782      5778      5777      5780      5783
      5779      5777      5780      5781      5779      5777      5780      5782
      5779      5777      5780      5783      5780      5783      5786      5787
      5780      5783      5786      5788      5780      5783      5786      5789
      5781      5780      5783      5784      5781      5780      5783      5785
      5781      5780      5783      5786      5782      5780      5783      5784
      5782      5780      5783      5785      5782      5780      5783      5786
      5783      5786      5789      5790      5783      5786      5789      5791
      5783      5786      5789      5792      5784      5783      5786      5787
      5784      5783      5786      5788      5784      5783      5786      5789
      5785      5783      5786      5787      5785      5783      5786      5788
      5785      5783      5786      5789      5787      5786      5789      5790
      5787      5786      5789      5791      5787      5786      5789      5792
      5788      5786      5789      5790      5788      5786      5789      5791
      5788      5786      5789      5792      5793      5796      5799      5800
      5793      5796      5799      5801      5793      5796      5799      5802
      5794      5793      5796      5797      5794      5793      5796      5798
      5794      5793      5796      5799      5795      5793      5796      5797
      5795      5793      5796      5798      5795      5793      5796      5799
      5796      5799      5802      5803      5796      5799      5802      5804
      5796      5799      5802      5805      5797      5796      5799      5800
      5797      5796      5799      5801      5797      5796      5799      5802
      5798      5796      5799      5800      5798      5796      5799      5801
      5798      5796      5799      5802      5799      5802      5805      5806
      5799      5802      5805      5807      5799      5802      5805      5808
      5800      5799      5802      5803      5800      5799      5802      5804
      5800      5799      5802      5805      5801      5799      5802      5803
      5801      5799      5802      5804      5801      5799      5802      5805
      5802      5805      5808      5809      5802      5805      5808      5810
      5802      5805      5808      5811      5803      5802      5805      5806
      5803      5802      5805      5807      5803      5802      5805      5808
      5804      5802      5805      5806      5804      5802      5805      5807
      5804      5802      5805      5808      5805      5808      5811      5812
      5805      5808      5811      5813      5805      5808      5811      5814
      5806      5805      5808      5809      5806      5805      5808      5810
      5806      5805      5808      5811      5807      5805      5808      5809
      5807      5805      5808      5810      5807      5805      5808      5811
      5808      5811      5814      5815      5808      5811      5814      5816
      5808      5811      5814      5817      5809      5808      5811      5812
      5809      5808      5811      5813      5809      5808      5811      5814
      5810      5808      5811      5812      5810      5808      5811      5813
      5810      5808      5811      5814      5811      5814      5817      5818
      5811      5814      5817      5819      5811      5814      5817      5820
      5812      5811      5814      5815      5812      5811      5814      5816
      5812      5811      5814      5817      5813      5811      5814      5815
      5813      5811      5814      5816      5813      5811      5814      5817
      5814      5817      5820      5821      5814      5817      5820      5822
      5814      5817      5820      5823      5815      5814      5817      5818
      5815      5814      5817      5819      5815      5814      5817      5820
      5816      5814      5817      5818      5816      5814      5817      5819
      5816      5814      5817      5820      5817      5820      5823      5824
      5817      5820      5823      5825      5817      5820      5823      5826
      5818      5817      5820      5821      5818      5817      5820      5822
      5818      5817      5820      5823      5819      5817      5820      5821
      5819      5817      5820      5822      5819      5817      5820      5823
      5820      5823      5826      5827      5820      5823      5826      5828
      5820      5823      5826      5829      5821      5820      5823      5824
      5821      5820      5823      5825      5821      5820      5823      5826
      5822      5820      5823      5824      5822      5820      5823      5825
      5822      5820      5823      5826      5823      5826      5829      5830
      5823      5826      5829      5831      5823      5826      5829      5832
      5824      5823      5826      5827      5824      5823      5826      5828
      5824      5823      5826      5829      5825      5823      5826      5827
      5825      5823      5826      5828      5825      5823      5826      5829
      5826      5829      5832      5833      5826      5829      5832      5834
      5826      5829      5832      5835      5827      5826      5829      5830
      5827      5826      5829      5831      5827      5826      5829      5832
      5828      5826      5829      5830      5828      5826      5829      5831
      5828      5826      5829      5832      5830      5829      5832      5833
      5830      5829      5832      5834      5830      5829      5832      5835
      5831      5829      5832      5833      5831      5829      5832      5834
      5831      5829      5832      5835      5836      5837      5852      5853
      5836      5837      5852      5854      5836      5837      5852      5858
      5837      5836      5840      5841      5837      5836      5840      5842
      5837      5836      5840      5843      5837      5836      5844      5845
      5837      5836      5844      5846      5837      5836      5844      5847
      5837      5836      5848      5849      5837      5836      5848      5850
      5837      5836      5848      5851      5837      5852      5858      5855
      5838      5837      5836      5840      5838      5837      5836      5844
      5838      5837      5836      5848      5838      5837      5852      5853
      5838      5837      5852      5854      5838      5837      5852      5858
      5839      5837      5836      5840      5839      5837      5836      5844
      5839      5837      5836      5848      5839      5837      5852      5853
      5839      5837      5852      5854      5839      5837      5852      5858
      5840      5836      5837      5852      5840      5836      5844      5845
      5840      5836      5844      5846      5840      5836      5844      5847
      5840      5836      5848      5849      5840      5836      5848      5850
      5840      5836      5848      5851      5841      5840      5836      5844
      5841      5840      5836      5848      5842      5840      5836      5844
      5842      5840      5836      5848      5843      5840      5836      5844
      5843      5840      5836      5848      5844      5836      5837      5852
      5844      5836      5848      5849      5844      5836      5848      5850
      5844      5836      5848      5851      5845      5844      5836      5848
      5846      5844      5836      5848      5847      5844      5836      5848
      5848      5836      5837      5852      5852      5858      5855      5856
      5852      5858      5855      5857      5852      5858      5855      5859
      5853      5852      5858      5855      5854      5852      5858      5855
      5855      5859      5860      5861      5855      5859      5860      5862
      5855      5859      5860      5863      5856      5855      5859      5860
      5857      5855      5859      5860      5858      5855      5859      5860
      5859      5860      5863      5864      5859      5860      5863      5865
      5859      5860      5863      5871      5860      5863      5865      5866
      5860      5863      5871      5872      5860      5863      5871      5873
      5860      5863      5871      5874      5861      5860      5863      5864
      5861      5860      5863      5865      5861      5860      5863      5871
      5862      5860      5863      5864      5862      5860      5863      5865
      5862      5860      5863      5871      5863      5865      5866      5867
      5863      5865      5866      5868      5863      5871      5874      5875
      5864      5863      5865      5866      5864      5863      5871      5872
      5864      5863      5871      5873      5864      5863      5871      5874
      5865      5863      5871      5872      5865      5863      5871      5873
      5865      5863      5871      5874      5865      5866      5868      5869
      5865      5866      5868      5870      5865      5866      5868      5880
      5866      5865      5863      5871      5866      5868      5880      5881
      5866      5868      5880      5882      5866      5868      5880      5883
      5867      5866      5868      5869      5867      5866      5868      5870
      5867      5866      5868      5880      5868      5880      5883      5884
      5868      5880      5883      5885      5868      5880      5883      5886
      5869      5868      5880      5881      5869      5868      5880      5882
      5869      5868      5880      5883      5870      5868      5880      5881
      5870      5868      5880      5882      5870      5868      5880      5883
      5871      5874      5875      5876      5871      5874      5875      5877
      5872      5871      5874      5875      5873      5871      5874      5875
      5874      5875      5877      5878      5874      5875      5877      5879
      5874      5875      5877      5927      5875      5877      5927      5928
      5875      5877      5927      5929      5875      5877      5927      5930
      5876      5875      5877      5878      5876      5875      5877      5879
      5876      5875      5877      5927      5877      5927      5930      5931
      5877      5927      5930      5932      5877      5927      5930      5933
      5878      5877      5927      5928      5878      5877      5927      5929
      5878      5877      5927      5930      5879      5877      5927      5928
      5879      5877      5927      5929      5879      5877      5927      5930
      5880      5883      5886      5887      5880      5883      5886      5888
      5880      5883      5886      5889      5881      5880      5883      5884
      5881      5880      5883      5885      5881      5880      5883      5886
      5882      5880      5883      5884      5882      5880      5883      5885
      5882      5880      5883      5886      5883      5886      5889      5890
      5883      5886      5889      5891      5883      5886      5889      5892
      5884      5883      5886      5887      5884      5883      5886      5888
      5884      5883      5886      5889      5885      5883      5886      5887
      5885      5883      5886      5888      5885      5883      5886      5889
      5886      5889      5892      5893      5886      5889      5892      5894
      5886      5889      5892      5895      5887      5886      5889      5890
      5887      5886      5889      5891      5887      5886      5889      5892
      5888      5886      5889      5890      5888      5886      5889      5891
      5888      5886      5889      5892      5889      5892      5895      5896
      5889      5892      5895      5897      5889      5892      5895      5898
      5890      5889      5892      5893      5890      5889      5892      5894
      5890      5889      5892      5895      5891      5889      5892      5893
      5891      5889      5892      5894      5891      5889      5892      5895
      5892      5895      5898      5899      5892      5895      5898      5900
      5893      5892      5895      5896      5893      5892      5895      5897
      5893      5892      5895      5898      5894      5892      5895      5896
      5894      5892      5895      5897      5894      5892      5895      5898
      5895      5898      5900      5901      5895      5898      5900      5902
      5896      5895      5898      5899      5896      5895      5898      5900
      5897      5895      5898      5899      5897      5895      5898      5900
      5898      5900      5902      5903      5898      5900      5902      5904
      5898      5900      5902      5905      5899      5898      5900      5901
      5899      5898      5900      5902      5900      5902      5905      5906
      5900      5902      5905      5907      5900      5902      5905      5908
      5901      5900      5902      5903      5901      5900      5902      5904
      5901      5900      5902      5905      5902      5905      5908      5909
      5902      5905      5908      5910      5902      5905      5908      5911
      5903      5902      5905      5906      5903      5902      5905      5907
      5903      5902      5905      5908      5904      5902      5905      5906
      5904      5902      5905      5907      5904      5902      5905      5908
      5905      5908      5911      5912      5905      5908      5911      5913
      5905      5908      5911      5914      5906      5905      5908      5909
      5906      5905      5908      5910      5906      5905      5908      5911
      5907      5905      5908      5909      5907      5905      5908      5910
      5907      5905      5908      5911      5908      5911      5914      5915
      5908      5911      5914      5916      5908      5911      5914      5917
      5909      5908      5911      5912      5909      5908      5911      5913
      5909      5908      5911      5914      5910      5908      5911      5912
      5910      5908      5911      5913      5910      5908      5911      5914
      5911      5914      5917      5918      5911      5914      5917      5919
      5911      5914      5917      5920      5912      5911      5914      5915
      5912      5911      5914      5916      5912      5911      5914      5917
      5913      5911      5914      5915      5913      5911      5914      5916
      5913      5911      5914      5917      5914      5917      5920      5921
      5914      5917      5920      5922      5914      5917      5920      5923
      5915      5914      5917      5918      5915      5914      5917      5919
      5915      5914      5917      5920      5916      5914      5917      5918
      5916      5914      5917      5919      5916      5914      5917      5920
      5917      5920      5923      5924      5917      5920      5923      5925
      5917      5920      5923      5926      5918      5917      5920      5921
      5918      5917      5920      5922      5918      5917      5920      5923
      5919      5917      5920      5921      5919      5917      5920      5922
      5919      5917      5920      5923      5921      5920      5923      5924
      5921      5920      5923      5925      5921      5920      5923      5926
      5922      5920      5923      5924      5922      5920      5923      5925
      5922      5920      5923      5926      5927      5930      5933      5934
      5927      5930      5933      5935      5927      5930      5933      5936
      5928      5927      5930      5931      5928      5927      5930      5932
      5928      5927      5930      5933      5929      5927      5930      5931
      5929      5927      5930      5932      5929      5927      5930      5933
      5930      5933      5936      5937      5930      5933      5936      5938
      5930      5933      5936      5939      5931      5930      5933      5934
      5931      5930      5933      5935      5931      5930      5933      5936
      5932      5930      5933      5934      5932      5930      5933      5935
      5932      5930      5933      5936      5933      5936      5939      5940
      5933      5936      5939      5941      5933      5936      5939      5942
      5934      5933      5936      5937      5934      5933      5936      5938
      5934      5933      5936      5939      5935      5933      5936      5937
      5935      5933      5936      5938      5935      5933      5936      5939
      5936      5939      5942      5943      5936      5939      5942      5944
      5936      5939      5942      5945      5937      5936      5939      5940
      5937      5936      5939      5941      5937      5936      5939      5942
      5938      5936      5939      5940      5938      5936      5939      5941
      5938      5936      5939      5942      5939      5942      5945      5946
      5939      5942      5945      5947      5939      5942      5945      5948
      5940      5939      5942      5943      5940      5939      5942      5944
      5940      5939      5942      5945      5941      5939      5942      5943
      5941      5939      5942      5944      5941      5939      5942      5945
      5942      5945      5948      5949      5942      5945      5948      5950
      5942      5945      5948      5951      5943      5942      5945      5946
      5943      5942      5945      5947      5943      5942      5945      5948
      5944      5942      5945      5946      5944      5942      5945      5947
      5944      5942      5945      5948      5945      5948      5951      5952
      5945      5948      5951      5953      5945      5948      5951      5954
      5946      5945      5948      5949      5946      5945      5948      5950
      5946      5945      5948      5951      5947      5945      5948      5949
      5947      5945      5948      5950      5947      5945      5948      5951
      5948      5951      5954      5955      5948      5951      5954      5956
      5948      5951      5954      5957      5949      5948      5951      5952
      5949      5948      5951      5953      5949      5948      5951      5954
      5950      5948      5951      5952      5950      5948      5951      5953
      5950      5948      5951      5954      5951      5954      5957      5958
      5951      5954      5957      5959      5951      5954      5957      5960
      5952      5951      5954      5955      5952      5951      5954      5956
      5952      5951      5954      5957      5953      5951      5954      5955
      5953      5951      5954      5956      5953      5951      5954      5957
      5954      5957      5960      5961      5954      5957      5960      5962
      5954      5957      5960      5963      5955      5954      5957      5958
      5955      5954      5957      5959      5955      5954      5957      5960
      5956      5954      5957      5958      5956      5954      5957      5959
      5956      5954      5957      5960      5957      5960      5963      5964
      5957      5960      5963      5965      5957      5960      5963      5966
      5958      5957      5960      5961      5958      5957      5960      5962
      5958      5957      5960      5963      5959      5957      5960      5961
      5959      5957      5960      5962      5959      5957      5960      5963
      5960      5963      5966      5967      5960      5963      5966      5968
      5960      5963      5966      5969      5961      5960      5963      5964
      5961      5960      5963      5965      5961      5960      5963      5966
      5962      5960      5963      5964      5962      5960      5963      5965
      5962      5960      5963      5966      5964      5963      5966      5967
      5964      5963      5966      5968      5964      5963      5966      5969
      5965      5963      5966      5967      5965      5963      5966      5968
      5965      5963      5966      5969      5970      5971      5986      5987
      5970      5971      5986      5988      5970      5971      5986      5992
      5971      5970      5974      5975      5971      5970      5974      5976
      5971      5970      5974      5977      5971      5970      5978      5979
      5971      5970      5978      5980      5971      5970      5978      5981
      5971      5970      5982      5983      5971      5970      5982      5984
      5971      5970      5982      5985      5971      5986      5992      5989
      5972      5971      5970      5974      5972      5971      5970      5978
      5972      5971      5970      5982      5972      5971      5986      5987
      5972      5971      5986      5988      5972      5971      5986      5992
      5973      5971      5970      5974      5973      5971      5970      5978
      5973      5971      5970      5982      5973      5971      5986      5987
      5973      5971      5986      5988      5973      5971      5986      5992
      5974      5970      5971      5986      5974      5970      5978      5979
      5974      5970      5978      5980      5974      5970      5978      5981
      5974      5970      5982      5983      5974      5970      5982      5984
      5974      5970      5982      5985      5975      5974      5970      5978
      5975      5974      5970      5982      5976      5974      5970      5978
      5976      5974      5970      5982      5977      5974      5970      5978
      5977      5974      5970      5982      5978      5970      5971      5986
      5978      5970      5982      5983      5978      5970      5982      5984
      5978      5970      5982      5985      5979      5978      5970      5982
      5980      5978      5970      5982      5981      5978      5970      5982
      5982      5970      5971      5986      5986      5992      5989      5990
      5986      5992      5989      5991      5986      5992      5989      5993
      5987      5986      5992      5989      5988      5986      5992      5989
      5989      5993      5994      5995      5989      5993      5994      5996
      5989      5993      5994      5997      5990      5989      5993      5994
      5991      5989      5993      5994      5992      5989      5993      5994
      5993      5994      5997      5998      5993      5994      5997      5999
      5993      5994      5997      6005      5994      5997      5999      6000
      5994      5997      6005      6006      5994      5997      6005      6007
      5994      5997      6005      6008      5995      5994      5997      5998
      5995      5994      5997      5999      5995      5994      5997      6005
      5996      5994      5997      5998      5996      5994      5997      5999
      5996      5994      5997      6005      5997      5999      6000      6001
      5997      5999      6000      6002      5997      6005      6008      6009
      5998      5997      5999      6000      5998      5997      6005      6006
      5998      5997      6005      6007      5998      5997      6005      6008
      5999      5997      6005      6006      5999      5997      6005      6007
      5999      5997      6005      6008      5999      6000      6002      6003
      5999      6000      6002      6004      5999      6000      6002      6014
      6000      5999      5997      6005      6000      6002      6014      6015
      6000      6002      6014      6016      6000      6002      6014      6017
      6001      6000      6002      6003      6001      6000      6002      6004
      6001      6000      6002      6014      6002      6014      6017      6018
      6002      6014      6017      6019      6002      6014      6017      6020
      6003      6002      6014      6015      6003      6002      6014      6016
      6003      6002      6014      6017      6004      6002      6014      6015
      6004      6002      6014      6016      6004      6002      6014      6017
      6005      6008      6009      6010      6005      6008      6009      6011
      6006      6005      6008      6009      6007      6005      6008      6009
      6008      6009      6011      6012      6008      6009      6011      6013
      6008      6009      6011      6061      6009      6011      6061      6062
      6009      6011      6061      6063      6009      6011      6061      6064
      6010      6009      6011      6012      6010      6009      6011      6013
      6010      6009      6011      6061      6011      6061      6064      6065
      6011      6061      6064      6066      6011      6061      6064      6067
      6012      6011      6061      6062      6012      6011      6061      6063
      6012      6011      6061      6064      6013      6011      6061      6062
      6013      6011      6061      6063      6013      6011      6061      6064
      6014      6017      6020      6021      6014      6017      6020      6022
      6014      6017      6020      6023      6015      6014      6017      6018
      6015      6014      6017      6019      6015      6014      6017      6020
      6016      6014      6017      6018      6016      6014      6017      6019
      6016      6014      6017      6020      6017      6020      6023      6024
      6017      6020      6023      6025      6017      6020      6023      6026
      6018      6017      6020      6021      6018      6017      6020      6022
      6018      6017      6020      6023      6019      6017      6020      6021
      6019      6017      6020      6022      6019      6017      6020      6023
      6020      6023      6026      6027      6020      6023      6026      6028
      6020      6023      6026      6029      6021      6020      6023      6024
      6021      6020      6023      6025      6021      6020      6023      6026
      6022      6020      6023      6024      6022      6020      6023      6025
      6022      6020      6023      6026      6023      6026      6029      6030
      6023      6026      6029      6031      6023      6026      6029      6032
      6024      6023      6026      6027      6024      6023      6026      6028
      6024      6023      6026      6029      6025      6023      6026      6027
      6025      6023      6026      6028      6025      6023      6026      6029
      6026      6029      6032      6033      6026      6029      6032      6034
      6027      6026      6029      6030      6027      6026      6029      6031
      6027      6026      6029      6032      6028      6026      6029      6030
      6028      6026      6029      6031      6028      6026      6029      6032
      6029      6032      6034      6035      6029      6032      6034      6036
      6030      6029      6032      6033      6030      6029      6032      6034
      6031      6029      6032      6033      6031      6029      6032      6034
      6032      6034      6036      6037      6032      6034      6036      6038
      6032      6034      6036      6039      6033      6032      6034      6035
      6033      6032      6034      6036      6034      6036      6039      6040
      6034      6036      6039      6041      6034      6036      6039      6042
      6035      6034      6036      6037      6035      6034      6036      6038
      6035      6034      6036      6039      6036      6039      6042      6043
      6036      6039      6042      6044      6036      6039      6042      6045
      6037      6036      6039      6040      6037      6036      6039      6041
      6037      6036      6039      6042      6038      6036      6039      6040
      6038      6036      6039      6041      6038      6036      6039      6042
      6039      6042      6045      6046      6039      6042      6045      6047
      6039      6042      6045      6048      6040      6039      6042      6043
      6040      6039      6042      6044      6040      6039      6042      6045
      6041      6039      6042      6043      6041      6039      6042      6044
      6041      6039      6042      6045      6042      6045      6048      6049
      6042      6045      6048      6050      6042      6045      6048      6051
      6043      6042      6045      6046      6043      6042      6045      6047
      6043      6042      6045      6048      6044      6042      6045      6046
      6044      6042      6045      6047      6044      6042      6045      6048
      6045      6048      6051      6052      6045      6048      6051      6053
      6045      6048      6051      6054      6046      6045      6048      6049
      6046      6045      6048      6050      6046      6045      6048      6051
      6047      6045      6048      6049      6047      6045      6048      6050
      6047      6045      6048      6051      6048      6051      6054      6055
      6048      6051      6054      6056      6048      6051      6054      6057
      6049      6048      6051      6052      6049      6048      6051      6053
      6049      6048      6051      6054      6050      6048      6051      6052
      6050      6048      6051      6053      6050      6048      6051      6054
      6051      6054      6057      6058      6051      6054      6057      6059
      6051      6054      6057      6060      6052      6051      6054      6055
      6052      6051      6054      6056      6052      6051      6054      6057
      6053      6051      6054      6055      6053      6051      6054      6056
      6053      6051      6054      6057      6055      6054      6057      6058
      6055      6054      6057      6059      6055      6054      6057      6060
      6056      6054      6057      6058      6056      6054      6057      6059
      6056      6054      6057      6060      6061      6064      6067      6068
      6061      6064      6067      6069      6061      6064      6067      6070
      6062      6061      6064      6065      6062      6061      6064      6066
      6062      6061      6064      6067      6063      6061      6064      6065
      6063      6061      6064      6066      6063      6061      6064      6067
      6064      6067      6070      6071      6064      6067      6070      6072
      6064      6067      6070      6073      6065      6064      6067      6068
      6065      6064      6067      6069      6065      6064      6067      6070
      6066      6064      6067      6068      6066      6064      6067      6069
      6066      6064      6067      6070      6067      6070      6073      6074
      6067      6070      6073      6075      6067      6070      6073      6076
      6068      6067      6070      6071      6068      6067      6070      6072
      6068      6067      6070      6073      6069      6067      6070      6071
      6069      6067      6070      6072      6069      6067      6070      6073
      6070      6073      6076      6077      6070      6073      6076      6078
      6070      6073      6076      6079      6071      6070      6073      6074
      6071      6070      6073      6075      6071      6070      6073      6076
      6072      6070      6073      6074      6072      6070      6073      6075
      6072      6070      6073      6076      6073      6076      6079      6080
      6073      6076      6079      6081      6073      6076      6079      6082
      6074      6073      6076      6077      6074      6073      6076      6078
      6074      6073      6076      6079      6075      6073      6076      6077
      6075      6073      6076      6078      6075      6073      6076      6079
      6076      6079      6082      6083      6076      6079      6082      6084
      6076      6079      6082      6085      6077      6076      6079      6080
      6077      6076      6079      6081      6077      6076      6079      6082
      6078      6076      6079      6080      6078      6076      6079      6081
      6078      6076      6079      6082      6079      6082      6085      6086
      6079      6082      6085      6087      6079      6082      6085      6088
      6080      6079      6082      6083      6080      6079      6082      6084
      6080      6079      6082      6085      6081      6079      6082      6083
      6081      6079      6082      6084      6081      6079      6082      6085
      6082      6085      6088      6089      6082      6085      6088      6090
      6082      6085      6088      6091      6083      6082      6085      6086
      6083      6082      6085      6087      6083      6082      6085      6088
      6084      6082      6085      6086      6084      6082      6085      6087
      6084      6082      6085      6088      6085      6088      6091      6092
      6085      6088      6091      6093      6085      6088      6091      6094
      6086      6085      6088      6089      6086      6085      6088      6090
      6086      6085      6088      6091      6087      6085      6088      6089
      6087      6085      6088      6090      6087      6085      6088      6091
      6088      6091      6094      6095      6088      6091      6094      6096
      6088      6091      6094      6097      6089      6088      6091      6092
      6089      6088      6091      6093      6089      6088      6091      6094
      6090      6088      6091      6092      6090      6088      6091      6093
      6090      6088      6091      6094      6091      6094      6097      6098
      6091      6094      6097      6099      6091      6094      6097      6100
      6092      6091      6094      6095      6092      6091      6094      6096
      6092      6091      6094      6097      6093      6091      6094      6095
      6093      6091      6094      6096      6093      6091      6094      6097
      6094      6097      6100      6101      6094      6097      6100      6102
      6094      6097      6100      6103      6095      6094      6097      6098
      6095      6094      6097      6099      6095      6094      6097      6100
      6096      6094      6097      6098      6096      6094      6097      6099
      6096      6094      6097      6100      6098      6097      6100      6101
      6098      6097      6100      6102      6098      6097      6100      6103
      6099      6097      6100      6101      6099      6097      6100      6102
      6099      6097      6100      6103      6104      6108      6110      6111
      6104      6108      6110      6112      6104      6108      6113      6114
      6104      6108      6113      6115      6104      6108      6113      6119
      6105      6104      6108      6109      6105      6104      6108      6110
      6105      6104      6108      6113      6106      6104      6108      6109
      6106      6104      6108      6110      6106      6104      6108      6113
      6107      6104      6108      6109      6107      6104      6108      6110
      6107      6104      6108      6113      6108      6113      6119      6116
      6109      6108      6110      6111      6109      6108      6110      6112
      6109      6108      6113      6114      6109      6108      6113      6115
      6109      6108      6113      6119      6110      6108      6113      6114
      6110      6108      6113      6115      6110      6108      6113      6119
      6111      6110      6108      6113      6112      6110      6108      6113
      6113      6119      6116      6117      6113      6119      6116      6118
      6113      6119      6116      6120      6114      6113      6119      6116
      6115      6113      6119      6116      6116      6120      6121      6122
      6116      6120      6121      6123      6116      6120      6121      6124
      6117      6116      6120      6121      6118      6116      6120      6121
      6119      6116      6120      6121      6120      6121      6124      6125
      6120      6121      6124      6126      6120      6121      6124      6132
      6121      6124      6126      6127      6121      6124      6132      6133
      6121      6124      6132      6134      6121      6124      6132      6135
      6122      6121      6124      6125      6122      6121      6124      6126
      6122      6121      6124      6132      6123      6121      6124      6125
      6123      6121      6124      6126      6123      6121      6124      6132
      6124      6126      6127      6128      6124      6126      6127      6129
      6124      6132      6135      6136      6125      6124      6126      6127
      6125      6124      6132      6133      6125      6124      6132      6134
      6125      6124      6132      6135      6126      6124      6132      6133
      6126      6124      6132      6134      6126      6124      6132      6135
      6126      6127      6129      6130      6126      6127      6129      6131
      6126      6127      6129      6141      6127      6126      6124      6132
      6127      6129      6141      6142      6127      6129      6141      6143
      6127      6129      6141      6144      6128      6127      6129      6130
      6128      6127      6129      6131      6128      6127      6129      6141
      6129      6141      6144      6145      6129      6141      6144      6146
      6129      6141      6144      6147      6130      6129      6141      6142
      6130      6129      6141      6143      6130      6129      6141      6144
      6131      6129      6141      6142      6131      6129      6141      6143
      6131      6129      6141      6144      6132      6135      6136      6137
      6132      6135      6136      6138      6133      6132      6135      6136
      6134      6132      6135      6136      6135      6136      6138      6139
      6135      6136      6138      6140      6135      6136      6138      6188
      6136      6138      6188      6189      6136      6138      6188      6190
      6136      6138      6188      6191      6137      6136      6138      6139
      6137      6136      6138      6140      6137      6136      6138      6188
      6138      6188      6191      6192      6138      6188      6191      6193
      6138      6188      6191      6194      6139      6138      6188      6189
      6139      6138      6188      6190      6139      6138      6188      6191
      6140      6138      6188      6189      6140      6138      6188      6190
      6140      6138      6188      6191      6141      6144      6147      6148
      6141      6144      6147      6149      6141      6144      6147      6150
      6142      6141      6144      6145      6142      6141      6144      6146
      6142      6141      6144      6147      6143      6141      6144      6145
      6143      6141      6144      6146      6143      6141      6144      6147
      6144      6147      6150      6151      6144      6147      6150      6152
      6144      6147      6150      6153      6145      6144      6147      6148
      6145      6144      6147      6149      6145      6144      6147      6150
      6146      6144      6147      6148      6146      6144      6147      6149
      6146      6144      6147      6150      6147      6150      6153      6154
      6147      6150      6153      6155      6147      6150      6153      6156
      6148      6147      6150      6151      6148      6147      6150      6152
      6148      6147      6150      6153      6149      6147      6150      6151
      6149      6147      6150      6152      6149      6147      6150      6153
      6150      6153      6156      6157      6150      6153      6156      6158
      6150      6153      6156      6159      6151      6150      6153      6154
      6151      6150      6153      6155      6151      6150      6153      6156
      6152      6150      6153      6154      6152      6150      6153      6155
      6152      6150      6153      6156      6153      6156      6159      6160
      6153      6156      6159      6161      6154      6153      6156      6157
      6154      6153      6156      6158      6154      6153      6156      6159
      6155      6153      6156      6157      6155      6153      6156      6158
      6155      6153      6156      6159      6156      6159      6161      6162
      6156      6159      6161      6163      6157      6156      6159      6160
      6157      6156      6159      6161      6158      6156      6159      6160
      6158      6156      6159      6161      6159      6161      6163      6164
      6159      6161      6163      6165      6159      6161      6163      6166
      6160      6159      6161      6162      6160      6159      6161      6163
      6161      6163      6166      6167      6161      6163      6166      6168
      6161      6163      6166      6169      6162      6161      6163      6164
      6162      6161      6163      6165      6162      6161      6163      6166
      6163      6166      6169      6170      6163      6166      6169      6171
      6163      6166      6169      6172      6164      6163      6166      6167
      6164      6163      6166      6168      6164      6163      6166      6169
      6165      6163      6166      6167      6165      6163      6166      6168
      6165      6163      6166      6169      6166      6169      6172      6173
      6166      6169      6172      6174      6166      6169      6172      6175
      6167      6166      6169      6170      6167      6166      6169      6171
      6167      6166      6169      6172      6168      6166      6169      6170
      6168      6166      6169      6171      6168      6166      6169      6172
      6169      6172      6175      6176      6169      6172      6175      6177
      6169      6172      6175      6178      6170      6169      6172      6173
      6170      6169      6172      6174      6170      6169      6172      6175
      6171      6169      6172      6173      6171      6169      6172      6174
      6171      6169      6172      6175      6172      6175      6178      6179
      6172      6175      6178      6180      6172      6175      6178      6181
      6173      6172      6175      6176      6173      6172      6175      6177
      6173      6172      6175      6178      6174      6172      6175      6176
      6174      6172      6175      6177      6174      6172      6175      6178
      6175      6178      6181      6182      6175      6178      6181      6183
      6175      6178      6181      6184      6176      6175      6178      6179
      6176      6175      6178      6180      6176      6175      6178      6181
      6177      6175      6178      6179      6177      6175      6178      6180
      6177      6175      6178      6181      6178      6181      6184      6185
      6178      6181      6184      6186      6178      6181      6184      6187
      6179      6178      6181      6182      6179      6178      6181      6183
      6179      6178      6181      6184      6180      6178      6181      6182
      6180      6178      6181      6183      6180      6178      6181      6184
      6182      6181      6184      6185      6182      6181      6184      6186
      6182      6181      6184      6187      6183      6181      6184      6185
      6183      6181      6184      6186      6183      6181      6184      6187
      6188      6191      6194      6195      6188      6191      6194      6196
      6188      6191      6194      6197      6189      6188      6191      6192
      6189      6188      6191      6193      6189      6188      6191      6194
      6190      6188      6191      6192      6190      6188      6191      6193
      6190      6188      6191      6194      6191      6194      6197      6198
      6191      6194      6197      6199      6191      6194      6197      6200
      6192      6191      6194      6195      6192      6191      6194      6196
      6192      6191      6194      6197      6193      6191      6194      6195
      6193      6191      6194      6196      6193      6191      6194      6197
      6194      6197      6200      6201      6194      6197      6200      6202
      6194      6197      6200      6203      6195      6194      6197      6198
      6195      6194      6197      6199      6195      6194      6197      6200
      6196      6194      6197      6198      6196      6194      6197      6199
      6196      6194      6197      6200      6197      6200      6203      6204
      6197      6200      6203      6205      6197      6200      6203      6206
      6198      6197      6200      6201      6198      6197      6200      6202
      6198      6197      6200      6203      6199      6197      6200      6201
      6199      6197      6200      6202      6199      6197      6200      6203
      6200      6203      6206      6207      6200      6203      6206      6208
      6200      6203      6206      6209      6201      6200      6203      6204
      6201      6200      6203      6205      6201      6200      6203      6206
      6202      6200      6203      6204      6202      6200      6203      6205
      6202      6200      6203      6206      6203      6206      6209      6210
      6203      6206      6209      6211      6203      6206      6209      6212
      6204      6203      6206      6207      6204      6203      6206      6208
      6204      6203      6206      6209      6205      6203      6206      6207
      6205      6203      6206      6208      6205      6203      6206      6209
      6206      6209      6212      6213      6206      6209      6212      6214
      6206      6209      6212      6215      6207      6206      6209      6210
      6207      6206      6209      6211      6207      6206      6209      6212
      6208      6206      6209      6210      6208      6206      6209      6211
      6208      6206      6209      6212      6209      6212      6215      6216
      6209      6212      6215      6217      6209      6212      6215      6218
      6210      6209      6212      6213      6210      6209      6212      6214
      6210      6209      6212      6215      6211      6209      6212      6213
      6211      6209      6212      6214      6211      6209      6212      6215
      6212      6215      6218      6219      6212      6215      6218      6220
      6212      6215      6218      6221      6213      6212      6215      6216
      6213      6212      6215      6217      6213      6212      6215      6218
      6214      6212      6215      6216      6214      6212      6215      6217
      6214      6212      6215      6218      6215      6218      6221      6222
      6215      6218      6221      6223      6215      6218      6221      6224
      6216      6215      6218      6219      6216      6215      6218      6220
      6216      6215      6218      6221      6217      6215      6218      6219
      6217      6215      6218      6220      6217      6215      6218      6221
      6218      6221      6224      6225      6218      6221      6224      6226
      6218      6221      6224      6227      6219      6218      6221      6222
      6219      6218      6221      6223      6219      6218      6221      6224
      6220      6218      6221      6222      6220      6218      6221      6223
      6220      6218      6221      6224      6221      6224      6227      6228
      6221      6224      6227      6229      6221      6224      6227      6230
      6222      6221      6224      6225      6222      6221      6224      6226
      6222      6221      6224      6227      6223      6221      6224      6225
      6223      6221      6224      6226      6223      6221      6224      6227
      6225      6224      6227      6228      6225      6224      6227      6229
      6225      6224      6227      6230      6226      6224      6227      6228
      6226      6224      6227      6229      6226      6224      6227      6230
      6231      6232      6247      6248      6231      6232      6247      6249
      6231      6232      6247      6253      6232      6231      6235      6236
      6232      6231      6235      6237      6232      6231      6235      6238
      6232      6231      6239      6240      6232      6231      6239      6241
      6232      6231      6239      6242      6232      6231      6243      6244
      6232      6231      6243      6245      6232      6231      6243      6246
      6232      6247      6253      6250      6233      6232      6231      6235
      6233      6232      6231      6239      6233      6232      6231      6243
      6233      6232      6247      6248      6233      6232      6247      6249
      6233      6232      6247      6253      6234      6232      6231      6235
      6234      6232      6231      6239      6234      6232      6231      6243
      6234      6232      6247      6248      6234      6232      6247      6249
      6234      6232      6247      6253      6235      6231      6232      6247
      6235      6231      6239      6240      6235      6231      6239      6241
      6235      6231      6239      6242      6235      6231      6243      6244
      6235      6231      6243      6245      6235      6231      6243      6246
      6236      6235      6231      6239      6236      6235      6231      6243
      6237      6235      6231      6239      6237      6235      6231      6243
      6238      6235      6231      6239      6238      6235      6231      6243
      6239      6231      6232      6247      6239      6231      6243      6244
      6239      6231      6243      6245      6239      6231      6243      6246
      6240      6239      6231      6243      6241      6239      6231      6243
      6242      6239      6231      6243      6243      6231      6232      6247
      6247      6253      6250      6251      6247      6253      6250      6252
      6247      6253      6250      6254      6248      6247      6253      6250
      6249      6247      6253      6250      6250      6254      6255      6256
      6250      6254      6255      6257      6250      6254      6255      6258
      6251      6250      6254      6255      6252      6250      6254      6255
      6253      6250      6254      6255      6254      6255      6258      6259
      6254      6255      6258      6260      6254      6255      6258      6266
      6255      6258      6260      6261      6255      6258      6266      6267
      6255      6258      6266      6268      6255      6258      6266      6269
      6256      6255      6258      6259      6256      6255      6258      6260
      6256      6255      6258      6266      6257      6255      6258      6259
      6257      6255      6258      6260      6257      6255      6258      6266
      6258      6260      6261      6262      6258      6260      6261      6263
      6258      6266      6269      6270      6259      6258      6260      6261
      6259      6258      6266      6267      6259      6258      6266      6268
      6259      6258      6266      6269      6260      6258      6266      6267
      6260      6258      6266      6268      6260      6258      6266      6269
      6260      6261      6263      6264      6260      6261      6263      6265
      6260      6261      6263      6275      6261      6260      6258      6266
      6261      6263      6275      6276      6261      6263      6275      6277
      6261      6263      6275      6278      6262      6261      6263      6264
      6262      6261      6263      6265      6262      6261      6263      6275
      6263      6275      6278      6279      6263      6275      6278      6280
      6263      6275      6278      6281      6264      6263      6275      6276
      6264      6263      6275      6277      6264      6263      6275      6278
      6265      6263      6275      6276      6265      6263      6275      6277
      6265      6263      6275      6278      6266      6269      6270      6271
      6266      6269      6270      6272      6267      6266      6269      6270
      6268      6266      6269      6270      6269      6270      6272      6273
      6269      6270      6272      6274      6269      6270      6272      6322
      6270      6272      6322      6323      6270      6272      6322      6324
      6270      6272      6322      6325      6271      6270      6272      6273
      6271      6270      6272      6274      6271      6270      6272      6322
      6272      6322      6325      6326      6272      6322      6325      6327
      6272      6322      6325      6328      6273      6272      6322      6323
      6273      6272      6322      6324      6273      6272      6322      6325
      6274      6272      6322      6323      6274      6272      6322      6324
      6274      6272      6322      6325      6275      6278      6281      6282
      6275      6278      6281      6283      6275      6278      6281      6284
      6276      6275      6278      6279      6276      6275      6278      6280
      6276      6275      6278      6281      6277      6275      6278      6279
      6277      6275      6278      6280      6277      6275      6278      6281
      6278      6281      6284      6285      6278      6281      6284      6286
      6278      6281      6284      6287      6279      6278      6281      6282
      6279      6278      6281      6283      6279      6278      6281      6284
      6280      6278      6281      6282      6280      6278      6281      6283
      6280      6278      6281      6284      6281      6284      6287      6288
      6281      6284      6287      6289      6281      6284      6287      6290
      6282      6281      6284      6285      6282      6281      6284      6286
      6282      6281      6284      6287      6283      6281      6284      6285
      6283      6281      6284      6286      6283      6281      6284      6287
      6284      6287      6290      6291      6284      6287      6290      6292
      6284      6287      6290      6293      6285      6284      6287      6288
      6285      6284      6287      6289      6285      6284      6287      6290
      6286      6284      6287      6288      6286      6284      6287      6289
      6286      6284      6287      6290      6287      6290      6293      6294
      6287      6290      6293      6295      6288      6287      6290      6291
      6288      6287      6290      6292      6288      6287      6290      6293
      6289      6287      6290      6291      6289      6287      6290      6292
      6289      6287      6290      6293      6290      6293      6295      6296
      6290      6293      6295      6297      6291      6290      6293      6294
      6291      6290      6293      6295      6292      6290      6293      6294
      6292      6290      6293      6295      6293      6295      6297      6298
      6293      6295      6297      6299      6293      6295      6297      6300
      6294      6293      6295      6296      6294      6293      6295      6297
      6295      6297      6300      6301      6295      6297      6300      6302
      6295      6297      6300      6303      6296      6295      6297      6298
      6296      6295      6297      6299      6296      6295      6297      6300
      6297      6300      6303      6304      6297      6300      6303      6305
      6297      6300      6303      6306      6298      6297      6300      6301
      6298      6297      6300      6302      6298      6297      6300      6303
      6299      6297      6300      6301      6299      6297      6300      6302
      6299      6297      6300      6303      6300      6303      6306      6307
      6300      6303      6306      6308      6300      6303      6306      6309
      6301      6300      6303      6304      6301      6300      6303      6305
      6301      6300      6303      6306      6302      6300      6303      6304
      6302      6300      6303      6305      6302      6300      6303      6306
      6303      6306      6309      6310      6303      6306      6309      6311
      6303      6306      6309      6312      6304      6303      6306      6307
      6304      6303      6306      6308      6304      6303      6306      6309
      6305      6303      6306      6307      6305      6303      6306      6308
      6305      6303      6306      6309      6306      6309      6312      6313
      6306      6309      6312      6314      6306      6309      6312      6315
      6307      6306      6309      6310      6307      6306      6309      6311
      6307      6306      6309      6312      6308      6306      6309      6310
      6308      6306      6309      6311      6308      6306      6309      6312
      6309      6312      6315      6316      6309      6312      6315      6317
      6309      6312      6315      6318      6310      6309      6312      6313
      6310      6309      6312      6314      6310      6309      6312      6315
      6311      6309      6312      6313      6311      6309      6312      6314
      6311      6309      6312      6315      6312      6315      6318      6319
      6312      6315      6318      6320      6312      6315      6318      6321
      6313      6312      6315      6316      6313      6312      6315      6317
      6313      6312      6315      6318      6314      6312      6315      6316
      6314      6312      6315      6317      6314      6312      6315      6318
      6316      6315      6318      6319      6316      6315      6318      6320
      6316      6315      6318      6321      6317      6315      6318      6319
      6317      6315      6318      6320      6317      6315      6318      6321
      6322      6325      6328      6329      6322      6325      6328      6330
      6322      6325      6328      6331      6323      6322      6325      6326
      6323      6322      6325      6327      6323      6322      6325      6328
      6324      6322      6325      6326      6324      6322      6325      6327
      6324      6322      6325      6328      6325      6328      6331      6332
      6325      6328      6331      6333      6325      6328      6331      6334
      6326      6325      6328      6329      6326      6325      6328      6330
      6326      6325      6328      6331      6327      6325      6328      6329
      6327      6325      6328      6330      6327      6325      6328      6331
      6328      6331      6334      6335      6328      6331      6334      6336
      6328      6331      6334      6337      6329      6328      6331      6332
      6329      6328      6331      6333      6329      6328      6331      6334
      6330      6328      6331      6332      6330      6328      6331      6333
      6330      6328      6331      6334      6331      6334      6337      6338
      6331      6334      6337      6339      6331      6334      6337      6340
      6332      6331      6334      6335      6332      6331      6334      6336
      6332      6331      6334      6337      6333      6331      6334      6335
      6333      6331      6334      6336      6333      6331      6334      6337
      6334      6337      6340      6341      6334      6337      6340      6342
      6334      6337      6340      6343      6335      6334      6337      6338
      6335      6334      6337      6339      6335      6334      6337      6340
      6336      6334      6337      6338      6336      6334      6337      6339
      6336      6334      6337      6340      6337      6340      6343      6344
      6337      6340      6343      6345      6337      6340      6343      6346
      6338      6337      6340      6341      6338      6337      6340      6342
      6338      6337      6340      6343      6339      6337      6340      6341
      6339      6337      6340      6342      6339      6337      6340      6343
      6340      6343      6346      6347      6340      6343      6346      6348
      6340      6343      6346      6349      6341      6340      6343      6344
      6341      6340      6343      6345      6341      6340      6343      6346
      6342      6340      6343      6344      6342      6340      6343      6345
      6342      6340      6343      6346      6343      6346      6349      6350
      6343      6346      6349      6351      6343      6346      6349      6352
      6344      6343      6346      6347      6344      6343      6346      6348
      6344      6343      6346      6349      6345      6343      6346      6347
      6345      6343      6346      6348      6345      6343      6346      6349
      6346      6349      6352      6353      6346      6349      6352      6354
      6346      6349      6352      6355      6347      6346      6349      6350
      6347      6346      6349      6351      6347      6346      6349      6352
      6348      6346      6349      6350      6348      6346      6349      6351
      6348      6346      6349      6352      6349      6352      6355      6356
      6349      6352      6355      6357      6349      6352      6355      6358
      6350      6349      6352      6353      6350      6349      6352      6354
      6350      6349      6352      6355      6351      6349      6352      6353
      6351      6349      6352      6354      6351      6349      6352      6355
      6352      6355      6358      6359      6352      6355      6358      6360
      6352      6355      6358      6361      6353      6352      6355      6356
      6353      6352      6355      6357      6353      6352      6355      6358
      6354      6352      6355      6356      6354      6352      6355      6357
      6354      6352      6355      6358      6355      6358      6361      6362
      6355      6358      6361      6363      6355      6358      6361      6364
      6356      6355      6358      6359      6356      6355      6358      6360
      6356      6355      6358      6361      6357      6355      6358      6359
      6357      6355      6358      6360      6357      6355      6358      6361
      6359      6358      6361      6362      6359      6358      6361      6363
      6359      6358      6361      6364      6360      6358      6361      6362
      6360      6358      6361      6363      6360      6358      6361      6364
      6365      6366      6381      6382      6365      6366      6381      6383
      6365      6366      6381      6387      6366      6365      6369      6370
      6366      6365      6369      6371      6366      6365      6369      6372
      6366      6365      6373      6374      6366      6365      6373      6375
      6366      6365      6373      6376      6366      6365      6377      6378
      6366      6365      6377      6379      6366      6365      6377      6380
      6366      6381      6387      6384      6367      6366      6365      6369
      6367      6366      6365      6373      6367      6366      6365      6377
      6367      6366      6381      6382      6367      6366      6381      6383
      6367      6366      6381      6387      6368      6366      6365      6369
      6368      6366      6365      6373      6368      6366      6365      6377
      6368      6366      6381      6382      6368      6366      6381      6383
      6368      6366      6381      6387      6369      6365      6366      6381
      6369      6365      6373      6374      6369      6365      6373      6375
      6369      6365      6373      6376      6369      6365      6377      6378
      6369      6365      6377      6379      6369      6365      6377      6380
      6370      6369      6365      6373      6370      6369      6365      6377
      6371      6369      6365      6373      6371      6369      6365      6377
      6372      6369      6365      6373      6372      6369      6365      6377
      6373      6365      6366      6381      6373      6365      6377      6378
      6373      6365      6377      6379      6373      6365      6377      6380
      6374      6373      6365      6377      6375      6373      6365      6377
      6376      6373      6365      6377      6377      6365      6366      6381
      6381      6387      6384      6385      6381      6387      6384      6386
      6381      6387      6384      6388      6382      6381      6387      6384
      6383      6381      6387      6384      6384      6388      6389      6390
      6384      6388      6389      6391      6384      6388      6389      6392
      6385      6384      6388      6389      6386      6384      6388      6389
      6387      6384      6388      6389      6388      6389      6392      6393
      6388      6389      6392      6394      6388      6389      6392      6400
      6389      6392      6394      6395      6389      6392      6400      6401
      6389      6392      6400      6402      6389      6392      6400      6403
      6390      6389      6392      6393      6390      6389      6392      6394
      6390      6389      6392      6400      6391      6389      6392      6393
      6391      6389      6392      6394      6391      6389      6392      6400
      6392      6394      6395      6396      6392      6394      6395      6397
      6392      6400      6403      6404      6393      6392      6394      6395
      6393      6392      6400      6401      6393      6392      6400      6402
      6393      6392      6400      6403      6394      6392      6400      6401
      6394      6392      6400      6402      6394      6392      6400      6403
      6394      6395      6397      6398      6394      6395      6397      6399
      6394      6395      6397      6409      6395      6394      6392      6400
      6395      6397      6409      6410      6395      6397      6409      6411
      6395      6397      6409      6412      6396      6395      6397      6398
      6396      6395      6397      6399      6396      6395      6397      6409
      6397      6409      6412      6413      6397      6409      6412      6414
      6397      6409      6412      6415      6398      6397      6409      6410
      6398      6397      6409      6411      6398      6397      6409      6412
      6399      6397      6409      6410      6399      6397      6409      6411
      6399      6397      6409      6412      6400      6403      6404      6405
      6400      6403      6404      6406      6401      6400      6403      6404
      6402      6400      6403      6404      6403      6404      6406      6407
      6403      6404      6406      6408      6403      6404      6406      6456
      6404      6406      6456      6457      6404      6406      6456      6458
      6404      6406      6456      6459      6405      6404      6406      6407
      6405      6404      6406      6408      6405      6404      6406      6456
      6406      6456      6459      6460      6406      6456      6459      6461
      6406      6456      6459      6462      6407      6406      6456      6457
      6407      6406      6456      6458      6407      6406      6456      6459
      6408      6406      6456      6457      6408      6406      6456      6458
      6408      6406      6456      6459      6409      6412      6415      6416
      6409      6412      6415      6417      6409      6412      6415      6418
      6410      6409      6412      6413      6410      6409      6412      6414
      6410      6409      6412      6415      6411      6409      6412      6413
      6411      6409      6412      6414      6411      6409      6412      6415
      6412      6415      6418      6419      6412      6415      6418      6420
      6412      6415      6418      6421      6413      6412      6415      6416
      6413      6412      6415      6417      6413      6412      6415      6418
      6414      6412      6415      6416      6414      6412      6415      6417
      6414      6412      6415      6418      6415      6418      6421      6422
      6415      6418      6421      6423      6415      6418      6421      6424
      6416      6415      6418      6419      6416      6415      6418      6420
      6416      6415      6418      6421      6417      6415      6418      6419
      6417      6415      6418      6420      6417      6415      6418      6421
      6418      6421      6424      6425      6418      6421      6424      6426
      6418      6421      6424      6427      6419      6418      6421      6422
      6419      6418      6421      6423      6419      6418      6421      6424
      6420      6418      6421      6422      6420      6418      6421      6423
      6420      6418      6421      6424      6421      6424      6427      6428
      6421      6424      6427      6429      6422      6421      6424      6425
      6422      6421      6424      6426      6422      6421      6424      6427
      6423      6421      6424      6425      6423      6421      6424      6426
      6423      6421      6424      6427      6424      6427      6429      6430
      6424      6427      6429      6431      6425      6424      6427      6428
      6425      6424      6427      6429      6426      6424      6427      6428
      6426      6424      6427      6429      6427      6429      6431      6432
      6427      6429      6431      6433      6427      6429      6431      6434
      6428      6427      6429      6430      6428      6427      6429      6431
      6429      6431      6434      6435      6429      6431      6434      6436
      6429      6431      6434      6437      6430      6429      6431      6432
      6430      6429      6431      6433      6430      6429      6431      6434
      6431      6434      6437      6438      6431      6434      6437      6439
      6431      6434      6437      6440      6432      6431      6434      6435
      6432      6431      6434      6436      6432      6431      6434      6437
      6433      6431      6434      6435      6433      6431      6434      6436
      6433      6431      6434      6437      6434      6437      6440      6441
      6434      6437      6440      6442      6434      6437      6440      6443
      6435      6434      6437      6438      6435      6434      6437      6439
      6435      6434      6437      6440      6436      6434      6437      6438
      6436      6434      6437      6439      6436      6434      6437      6440
      6437      6440      6443      6444      6437      6440      6443      6445
      6437      6440      6443      6446      6438      6437      6440      6441
      6438      6437      6440      6442      6438      6437      6440      6443
      6439      6437      6440      6441      6439      6437      6440      6442
      6439      6437      6440      6443      6440      6443      6446      6447
      6440      6443      6446      6448      6440      6443      6446      6449
      6441      6440      6443      6444      6441      6440      6443      6445
      6441      6440      6443      6446      6442      6440      6443      6444
      6442      6440      6443      6445      6442      6440      6443      6446
      6443      6446      6449      6450      6443      6446      6449      6451
      6443      6446      6449      6452      6444      6443      6446      6447
      6444      6443      6446      6448      6444      6443      6446      6449
      6445      6443      6446      6447      6445      6443      6446      6448
      6445      6443      6446      6449      6446      6449      6452      6453
      6446      6449      6452      6454      6446      6449      6452      6455
      6447      6446      6449      6450      6447      6446      6449      6451
      6447      6446      6449      6452      6448      6446      6449      6450
      6448      6446      6449      6451      6448      6446      6449      6452
      6450      6449      6452      6453      6450      6449      6452      6454
      6450      6449      6452      6455      6451      6449      6452      6453
      6451      6449      6452      6454      6451      6449      6452      6455
      6456      6459      6462      6463      6456      6459      6462      6464
      6456      6459      6462      6465      6457      6456      6459      6460
      6457      6456      6459      6461      6457      6456      6459      6462
      6458      6456      6459      6460      6458      6456      6459      6461
      6458      6456      6459      6462      6459      6462      6465      6466
      6459      6462      6465      6467      6459      6462      6465      6468
      6460      6459      6462      6463      6460      6459      6462      6464
      6460      6459      6462      6465      6461      6459      6462      6463
      6461      6459      6462      6464      6461      6459      6462      6465
      6462      6465      6468      6469      6462      6465      6468      6470
      6462      6465      6468      6471      6463      6462      6465      6466
      6463      6462      6465      6467      6463      6462      6465      6468
      6464      6462      6465      6466      6464      6462      6465      6467
      6464      6462      6465      6468      6465      6468      6471      6472
      6465      6468      6471      6473      6465      6468      6471      6474
      6466      6465      6468      6469      6466      6465      6468      6470
      6466      6465      6468      6471      6467      6465      6468      6469
      6467      6465      6468      6470      6467      6465      6468      6471
      6468      6471      6474      6475      6468      6471      6474      6476
      6468      6471      6474      6477      6469      6468      6471      6472
      6469      6468      6471      6473      6469      6468      6471      6474
      6470      6468      6471      6472      6470      6468      6471      6473
      6470      6468      6471      6474      6471      6474      6477      6478
      6471      6474      6477      6479      6471      6474      6477      6480
      6472      6471      6474      6475      6472      6471      6474      6476
      6472      6471      6474      6477      6473      6471      6474      6475
      6473      6471      6474      6476      6473      6471      6474      6477
      6474      6477      6480      6481      6474      6477      6480      6482
      6474      6477      6480      6483      6475      6474      6477      6478
      6475      6474      6477      6479      6475      6474      6477      6480
      6476      6474      6477      6478      6476      6474      6477      6479
      6476      6474      6477      6480      6477      6480      6483      6484
      6477      6480      6483      6485      6477      6480      6483      6486
      6478      6477      6480      6481      6478      6477      6480      6482
      6478      6477      6480      6483      6479      6477      6480      6481
      6479      6477      6480      6482      6479      6477      6480      6483
      6480      6483      6486      6487      6480      6483      6486      6488
      6480      6483      6486      6489      6481      6480      6483      6484
      6481      6480      6483      6485      6481      6480      6483      6486
      6482      6480      6483      6484      6482      6480      6483      6485
      6482      6480      6483      6486      6483      6486      6489      6490
      6483      6486      6489      6491      6483      6486      6489      6492
      6484      6483      6486      6487      6484      6483      6486      6488
      6484      6483      6486      6489      6485      6483      6486      6487
      6485      6483      6486      6488      6485      6483      6486      6489
      6486      6489      6492      6493      6486      6489      6492      6494
      6486      6489      6492      6495      6487      6486      6489      6490
      6487      6486      6489      6491      6487      6486      6489      6492
      6488      6486      6489      6490      6488      6486      6489      6491
      6488      6486      6489      6492      6489      6492      6495      6496
      6489      6492      6495      6497      6489      6492      6495      6498
      6490      6489      6492      6493      6490      6489      6492      6494
      6490      6489      6492      6495      6491      6489      6492      6493
      6491      6489      6492      6494      6491      6489      6492      6495
      6493      6492      6495      6496      6493      6492      6495      6497
      6493      6492      6495      6498      6494      6492      6495      6496
      6494      6492      6495      6497      6494      6492      6495      6498
      6499      6500      6515      6516      6499      6500      6515      6517
      6499      6500      6515      6521      6500      6499      6503      6504
      6500      6499      6503      6505      6500      6499      6503      6506
      6500      6499      6507      6508      6500      6499      6507      6509
      6500      6499      6507      6510      6500      6499      6511      6512
      6500      6499      6511      6513      6500      6499      6511      6514
      6500      6515      6521      6518      6501      6500      6499      6503
      6501      6500      6499      6507      6501      6500      6499      6511
      6501      6500      6515      6516      6501      6500      6515      6517
      6501      6500      6515      6521      6502      6500      6499      6503
      6502      6500      6499      6507      6502      6500      6499      6511
      6502      6500      6515      6516      6502      6500      6515      6517
      6502      6500      6515      6521      6503      6499      6500      6515
      6503      6499      6507      6508      6503      6499      6507      6509
      6503      6499      6507      6510      6503      6499      6511      6512
      6503      6499      6511      6513      6503      6499      6511      6514
      6504      6503      6499      6507      6504      6503      6499      6511
      6505      6503      6499      6507      6505      6503      6499      6511
      6506      6503      6499      6507      6506      6503      6499      6511
      6507      6499      6500      6515      6507      6499      6511      6512
      6507      6499      6511      6513      6507      6499      6511      6514
      6508      6507      6499      6511      6509      6507      6499      6511
      6510      6507      6499      6511      6511      6499      6500      6515
      6515      6521      6518      6519      6515      6521      6518      6520
      6515      6521      6518      6522      6516      6515      6521      6518
      6517      6515      6521      6518      6518      6522      6523      6524
      6518      6522      6523      6525      6518      6522      6523      6526
      6519      6518      6522      6523      6520      6518      6522      6523
      6521      6518      6522      6523      6522      6523      6526      6527
      6522      6523      6526      6528      6522      6523      6526      6534
      6523      6526      6528      6529      6523      6526      6534      6535
      6523      6526      6534      6536      6523      6526      6534      6537
      6524      6523      6526      6527      6524      6523      6526      6528
      6524      6523      6526      6534      6525      6523      6526      6527
      6525      6523      6526      6528      6525      6523      6526      6534
      6526      6528      6529      6530      6526      6528      6529      6531
      6526      6534      6537      6538      6527      6526      6528      6529
      6527      6526      6534      6535      6527      6526      6534      6536
      6527      6526      6534      6537      6528      6526      6534      6535
      6528      6526      6534      6536      6528      6526      6534      6537
      6528      6529      6531      6532      6528      6529      6531      6533
      6528      6529      6531      6543      6529      6528      6526      6534
      6529      6531      6543      6544      6529      6531      6543      6545
      6529      6531      6543      6546      6530      6529      6531      6532
      6530      6529      6531      6533      6530      6529      6531      6543
      6531      6543      6546      6547      6531      6543      6546      6548
      6531      6543      6546      6549      6532      6531      6543      6544
      6532      6531      6543      6545      6532      6531      6543      6546
      6533      6531      6543      6544      6533      6531      6543      6545
      6533      6531      6543      6546      6534      6537      6538      6539
      6534      6537      6538      6540      6535      6534      6537      6538
      6536      6534      6537      6538      6537      6538      6540      6541
      6537      6538      6540      6542      6537      6538      6540      6590
      6538      6540      6590      6591      6538      6540      6590      6592
      6538      6540      6590      6593      6539      6538      6540      6541
      6539      6538      6540      6542      6539      6538      6540      6590
      6540      6590      6593      6594      6540      6590      6593      6595
      6540      6590      6593      6596      6541      6540      6590      6591
      6541      6540      6590      6592      6541      6540      6590      6593
      6542      6540      6590      6591      6542      6540      6590      6592
      6542      6540      6590      6593      6543      6546      6549      6550
      6543      6546      6549      6551      6543      6546      6549      6552
      6544      6543      6546      6547      6544      6543      6546      6548
      6544      6543      6546      6549      6545      6543      6546      6547
      6545      6543      6546      6548      6545      6543      6546      6549
      6546      6549      6552      6553      6546      6549      6552      6554
      6546      6549      6552      6555      6547      6546      6549      6550
      6547      6546      6549      6551      6547      6546      6549      6552
      6548      6546      6549      6550      6548      6546      6549      6551
      6548      6546      6549      6552      6549      6552      6555      6556
      6549      6552      6555      6557      6549      6552      6555      6558
      6550      6549      6552      6553      6550      6549      6552      6554
      6550      6549      6552      6555      6551      6549      6552      6553
      6551      6549      6552      6554      6551      6549      6552      6555
      6552      6555      6558      6559      6552      6555      6558      6560
      6552      6555      6558      6561      6553      6552      6555      6556
      6553      6552      6555      6557      6553      6552      6555      6558
      6554      6552      6555      6556      6554      6552      6555      6557
      6554      6552      6555      6558      6555      6558      6561      6562
      6555      6558      6561      6563      6556      6555      6558      6559
      6556      6555      6558      6560      6556      6555      6558      6561
      6557      6555      6558      6559      6557      6555      6558      6560
      6557      6555      6558      6561      6558      6561      6563      6564
      6558      6561      6563      6565      6559      6558      6561      6562
      6559      6558      6561      6563      6560      6558      6561      6562
      6560      6558      6561      6563      6561      6563      6565      6566
      6561      6563      6565      6567      6561      6563      6565      6568
      6562      6561      6563      6564      6562      6561      6563      6565
      6563      6565      6568      6569      6563      6565      6568      6570
      6563      6565      6568      6571      6564      6563      6565      6566
      6564      6563      6565      6567      6564      6563      6565      6568
      6565      6568      6571      6572      6565      6568      6571      6573
      6565      6568      6571      6574      6566      6565      6568      6569
      6566      6565      6568      6570      6566      6565      6568      6571
      6567      6565      6568      6569      6567      6565      6568      6570
      6567      6565      6568      6571      6568      6571      6574      6575
      6568      6571      6574      6576      6568      6571      6574      6577
      6569      6568      6571      6572      6569      6568      6571      6573
      6569      6568      6571      6574      6570      6568      6571      6572
      6570      6568      6571      6573      6570      6568      6571      6574
      6571      6574      6577      6578      6571      6574      6577      6579
      6571      6574      6577      6580      6572      6571      6574      6575
      6572      6571      6574      6576      6572      6571      6574      6577
      6573      6571      6574      6575      6573      6571      6574      6576
      6573      6571      6574      6577      6574      6577      6580      6581
      6574      6577      6580      6582      6574      6577      6580      6583
      6575      6574      6577      6578      6575      6574      6577      6579
      6575      6574      6577      6580      6576      6574      6577      6578
      6576      6574      6577      6579      6576      6574      6577      6580
      6577      6580      6583      6584      6577      6580      6583      6585
      6577      6580      6583      6586      6578      6577      6580      6581
      6578      6577      6580      6582      6578      6577      6580      6583
      6579      6577      6580      6581      6579      6577      6580      6582
      6579      6577      6580      6583      6580      6583      6586      6587
      6580      6583      6586      6588      6580      6583      6586      6589
      6581      6580      6583      6584      6581      6580      6583      6585
      6581      6580      6583      6586      6582      6580      6583      6584
      6582      6580      6583      6585      6582      6580      6583      6586
      6584      6583      6586      6587      6584      6583      6586      6588
      6584      6583      6586      6589      6585      6583      6586      6587
      6585      6583      6586      6588      6585      6583      6586      6589
      6590      6593      6596      6597      6590      6593      6596      6598
      6590      6593      6596      6599      6591      6590      6593      6594
      6591      6590      6593      6595      6591      6590      6593      6596
      6592      6590      6593      6594      6592      6590      6593      6595
      6592      6590      6593      6596      6593      6596      6599      6600
      6593      6596      6599      6601      6593      6596      6599      6602
      6594      6593      6596      6597      6594      6593      6596      6598
      6594      6593      6596      6599      6595      6593      6596      6597
      6595      6593      6596      6598      6595      6593      6596      6599
      6596      6599      6602      6603      6596      6599      6602      6604
      6596      6599      6602      6605      6597      6596      6599      6600
      6597      6596      6599      6601      6597      6596      6599      6602
      6598      6596      6599      6600      6598      6596      6599      6601
      6598      6596      6599      6602      6599      6602      6605      6606
      6599      6602      6605      6607      6599      6602      6605      6608
      6600      6599      6602      6603      6600      6599      6602      6604
      6600      6599      6602      6605      6601      6599      6602      6603
      6601      6599      6602      6604      6601      6599      6602      6605
      6602      6605      6608      6609      6602      6605      6608      6610
      6602      6605      6608      6611      6603      6602      6605      6606
      6603      6602      6605      6607      6603      6602      6605      6608
      6604      6602      6605      6606      6604      6602      6605      6607
      6604      6602      6605      6608      6605      6608      6611      6612
      6605      6608      6611      6613      6605      6608      6611      6614
      6606      6605      6608      6609      6606      6605      6608      6610
      6606      6605      6608      6611      6607      6605      6608      6609
      6607      6605      6608      6610      6607      6605      6608      6611
      6608      6611      6614      6615      6608      6611      6614      6616
      6608      6611      6614      6617      6609      6608      6611      6612
      6609      6608      6611      6613      6609      6608      6611      6614
      6610      6608      6611      6612      6610      6608      6611      6613
      6610      6608      6611      6614      6611      6614      6617      6618
      6611      6614      6617      6619      6611      6614      6617      6620
      6612      6611      6614      6615      6612      6611      6614      6616
      6612      6611      6614      6617      6613      6611      6614      6615
      6613      6611      6614      6616      6613      6611      6614      6617
      6614      6617      6620      6621      6614      6617      6620      6622
      6614      6617      6620      6623      6615      6614      6617      6618
      6615      6614      6617      6619      6615      6614      6617      6620
      6616      6614      6617      6618      6616      6614      6617      6619
      6616      6614      6617      6620      6617      6620      6623      6624
      6617      6620      6623      6625      6617      6620      6623      6626
      6618      6617      6620      6621      6618      6617      6620      6622
      6618      6617      6620      6623      6619      6617      6620      6621
      6619      6617      6620      6622      6619      6617      6620      6623
      6620      6623      6626      6627      6620      6623      6626      6628
      6620      6623      6626      6629      6621      6620      6623      6624
      6621      6620      6623      6625      6621      6620      6623      6626
      6622      6620      6623      6624      6622      6620      6623      6625
      6622      6620      6623      6626      6623      6626      6629      6630
      6623      6626      6629      6631      6623      6626      6629      6632
      6624      6623      6626      6627      6624      6623      6626      6628
      6624      6623      6626      6629      6625      6623      6626      6627
      6625      6623      6626      6628      6625      6623      6626      6629
      6627      6626      6629      6630      6627      6626      6629      6631
      6627      6626      6629      6632      6628      6626      6629      6630
      6628      6626      6629      6631      6628      6626      6629      6632
      6633      6637      6639      6640      6633      6637      6639      6641
      6633      6637      6642      6643      6633      6637      6642      6644
      6633      6637      6642      6648      6634      6633      6637      6638
      6634      6633      6637      6639      6634      6633      6637      6642
      6635      6633      6637      6638      6635      6633      6637      6639
      6635      6633      6637      6642      6636      6633      6637      6638
      6636      6633      6637      6639      6636      6633      6637      6642
      6637      6642      6648      6645      6638      6637      6639      6640
      6638      6637      6639      6641      6638      6637      6642      6643
      6638      6637      6642      6644      6638      6637      6642      6648
      6639      6637      6642      6643      6639      6637      6642      6644
      6639      6637      6642      6648      6640      6639      6637      6642
      6641      6639      6637      6642      6642      6648      6645      6646
      6642      6648      6645      6647      6642      6648      6645      6649
      6643      6642      6648      6645      6644      6642      6648      6645
      6645      6649      6650      6651      6645      6649      6650      6652
      6645      6649      6650      6653      6646      6645      6649      6650
      6647      6645      6649      6650      6648      6645      6649      6650
      6649      6650      6653      6654      6649      6650      6653      6655
      6649      6650      6653      6661      6650      6653      6655      6656
      6650      6653      6661      6662      6650      6653      6661      6663
      6650      6653      6661      6664      6651      6650      6653      6654
      6651      6650      6653      6655      6651      6650      6653      6661
      6652      6650      6653      6654      6652      6650      6653      6655
      6652      6650      6653      6661      6653      6655      6656      6657
      6653      6655      6656      6658      6653      6661      6664      6665
      6654      6653      6655      6656      6654      6653      6661      6662
      6654      6653      6661      6663      6654      6653      6661      6664
      6655      6653      6661      6662      6655      6653      6661      6663
      6655      6653      6661      6664      6655      6656      6658      6659
      6655      6656      6658      6660      6655      6656      6658      6670
      6656      6655      6653      6661      6656      6658      6670      6671
      6656      6658      6670      6672      6656      6658      6670      6673
      6657      6656      6658      6659      6657      6656      6658      6660
      6657      6656      6658      6670      6658      6670      6673      6674
      6658      6670      6673      6675      6658      6670      6673      6676
      6659      6658      6670      6671      6659      6658      6670      6672
      6659      6658      6670      6673      6660      6658      6670      6671
      6660      6658      6670      6672      6660      6658      6670      6673
      6661      6664      6665      6666      6661      6664      6665      6667
      6662      6661      6664      6665      6663      6661      6664      6665
      6664      6665      6667      6668      6664      6665      6667      6669
      6664      6665      6667      6717      6665      6667      6717      6718
      6665      6667      6717      6719      6665      6667      6717      6720
      6666      6665      6667      6668      6666      6665      6667      6669
      6666      6665      6667      6717      6667      6717      6720      6721
      6667      6717      6720      6722      6667      6717      6720      6723
      6668      6667      6717      6718      6668      6667      6717      6719
      6668      6667      6717      6720      6669      6667      6717      6718
      6669      6667      6717      6719      6669      6667      6717      6720
      6670      6673      6676      6677      6670      6673      6676      6678
      6670      6673      6676      6679      6671      6670      6673      6674
      6671      6670      6673      6675      6671      6670      6673      6676
      6672      6670      6673      6674      6672      6670      6673      6675
      6672      6670      6673      6676      6673      6676      6679      6680
      6673      6676      6679      6681      6673      6676      6679      6682
      6674      6673      6676      6677      6674      6673      6676      6678
      6674      6673      6676      6679      6675      6673      6676      6677
      6675      6673      6676      6678      6675      6673      6676      6679
      6676      6679      6682      6683      6676      6679      6682      6684
      6676      6679      6682      6685      6677      6676      6679      6680
      6677      6676      6679      6681      6677      6676      6679      6682
      6678      6676      6679      6680      6678      6676      6679      6681
      6678      6676      6679      6682      6679      6682      6685      6686
      6679      6682      6685      6687      6679      6682      6685      6688
      6680      6679      6682      6683      6680      6679      6682      6684
      6680      6679      6682      6685      6681      6679      6682      6683
      6681      6679      6682      6684      6681      6679      6682      6685
      6682      6685      6688      6689      6682      6685      6688      6690
      6683      6682      6685      6686      6683      6682      6685      6687
      6683      6682      6685      6688      6684      6682      6685      6686
      6684      6682      6685      6687      6684      6682      6685      6688
      6685      6688      6690      6691      6685      6688      6690      6692
      6686      6685      6688      6689      6686      6685      6688      6690
      6687      6685      6688      6689      6687      6685      6688      6690
      6688      6690      6692      6693      6688      6690      6692      6694
      6688      6690      6692      6695      6689      6688      6690      6691
      6689      6688      6690      6692      6690      6692      6695      6696
      6690      6692      6695      6697      6690      6692      6695      6698
      6691      6690      6692      6693      6691      6690      6692      6694
      6691      6690      6692      6695      6692      6695      6698      6699
      6692      6695      6698      6700      6692      6695      6698      6701
      6693      6692      6695      6696      6693      6692      6695      6697
      6693      6692      6695      6698      6694      6692      6695      6696
      6694      6692      6695      6697      6694      6692      6695      6698
      6695      6698      6701      6702      6695      6698      6701      6703
      6695      6698      6701      6704      6696      6695      6698      6699
      6696      6695      6698      6700      6696      6695      6698      6701
      6697      6695      6698      6699      6697      6695      6698      6700
      6697      6695      6698      6701      6698      6701      6704      6705
      6698      6701      6704      6706      6698      6701      6704      6707
      6699      6698      6701      6702      6699      6698      6701      6703
      6699      6698      6701      6704      6700      6698      6701      6702
      6700      6698      6701      6703      6700      6698      6701      6704
      6701      6704      6707      6708      6701      6704      6707      6709
      6701      6704      6707      6710      6702      6701      6704      6705
      6702      6701      6704      6706      6702      6701      6704      6707
      6703      6701      6704      6705      6703      6701      6704      6706
      6703      6701      6704      6707      6704      6707      6710      6711
      6704      6707      6710      6712      6704      6707      6710      6713
      6705      6704      6707      6708      6705      6704      6707      6709
      6705      6704      6707      6710      6706      6704      6707      6708
      6706      6704      6707      6709      6706      6704      6707      6710
      6707      6710      6713      6714      6707      6710      6713      6715
      6707      6710      6713      6716      6708      6707      6710      6711
      6708      6707      6710      6712      6708      6707      6710      6713
      6709      6707      6710      6711      6709      6707      6710      6712
      6709      6707      6710      6713      6711      6710      6713      6714
      6711      6710      6713      6715      6711      6710      6713      6716
      6712      6710      6713      6714      6712      6710      6713      6715
      6712      6710      6713      6716      6717      6720      6723      6724
      6717      6720      6723      6725      6717      6720      6723      6726
      6718      6717      6720      6721      6718      6717      6720      6722
      6718      6717      6720      6723      6719      6717      6720      6721
      6719      6717      6720      6722      6719      6717      6720      6723
      6720      6723      6726      6727      6720      6723      6726      6728
      6720      6723      6726      6729      6721      6720      6723      6724
      6721      6720      6723      6725      6721      6720      6723      6726
      6722      6720      6723      6724      6722      6720      6723      6725
      6722      6720      6723      6726      6723      6726      6729      6730
      6723      6726      6729      6731      6723      6726      6729      6732
      6724      6723      6726      6727      6724      6723      6726      6728
      6724      6723      6726      6729      6725      6723      6726      6727
      6725      6723      6726      6728      6725      6723      6726      6729
      6726      6729      6732      6733      6726      6729      6732      6734
      6726      6729      6732      6735      6727      6726      6729      6730
      6727      6726      6729      6731      6727      6726      6729      6732
      6728      6726      6729      6730      6728      6726      6729      6731
      6728      6726      6729      6732      6729      6732      6735      6736
      6729      6732      6735      6737      6729      6732      6735      6738
      6730      6729      6732      6733      6730      6729      6732      6734
      6730      6729      6732      6735      6731      6729      6732      6733
      6731      6729      6732      6734      6731      6729      6732      6735
      6732      6735      6738      6739      6732      6735      6738      6740
      6732      6735      6738      6741      6733      6732      6735      6736
      6733      6732      6735      6737      6733      6732      6735      6738
      6734      6732      6735      6736      6734      6732      6735      6737
      6734      6732      6735      6738      6735      6738      6741      6742
      6735      6738      6741      6743      6735      6738      6741      6744
      6736      6735      6738      6739      6736      6735      6738      6740
      6736      6735      6738      6741      6737      6735      6738      6739
      6737      6735      6738      6740      6737      6735      6738      6741
      6738      6741      6744      6745      6738      6741      6744      6746
      6738      6741      6744      6747      6739      6738      6741      6742
      6739      6738      6741      6743      6739      6738      6741      6744
      6740      6738      6741      6742      6740      6738      6741      6743
      6740      6738      6741      6744      6741      6744      6747      6748
      6741      6744      6747      6749      6741      6744      6747      6750
      6742      6741      6744      6745      6742      6741      6744      6746
      6742      6741      6744      6747      6743      6741      6744      6745
      6743      6741      6744      6746      6743      6741      6744      6747
      6744      6747      6750      6751      6744      6747      6750      6752
      6744      6747      6750      6753      6745      6744      6747      6748
      6745      6744      6747      6749      6745      6744      6747      6750
      6746      6744      6747      6748      6746      6744      6747      6749
      6746      6744      6747      6750      6747      6750      6753      6754
      6747      6750      6753      6755      6747      6750      6753      6756
      6748      6747      6750      6751      6748      6747      6750      6752
      6748      6747      6750      6753      6749      6747      6750      6751
      6749      6747      6750      6752      6749      6747      6750      6753
      6750      6753      6756      6757      6750      6753      6756      6758
      6750      6753      6756      6759      6751      6750      6753      6754
      6751      6750      6753      6755      6751      6750      6753      6756
      6752      6750      6753      6754      6752      6750      6753      6755
      6752      6750      6753      6756      6754      6753      6756      6757
      6754      6753      6756      6758      6754      6753      6756      6759
      6755      6753      6756      6757      6755      6753      6756      6758
      6755      6753      6756      6759      6760      6761      6776      6777
      6760      6761      6776      6778      6760      6761      6776      6782
      6761      6760      6764      6765      6761      6760      6764      6766
      6761      6760      6764      6767      6761      6760      6768      6769
      6761      6760      6768      6770      6761      6760      6768      6771
      6761      6760      6772      6773      6761      6760      6772      6774
      6761      6760      6772      6775      6761      6776      6782      6779
      6762      6761      6760      6764      6762      6761      6760      6768
      6762      6761      6760      6772      6762      6761      6776      6777
      6762      6761      6776      6778      6762      6761      6776      6782
      6763      6761      6760      6764      6763      6761      6760      6768
      6763      6761      6760      6772      6763      6761      6776      6777
      6763      6761      6776      6778      6763      6761      6776      6782
      6764      6760      6761      6776      6764      6760      6768      6769
      6764      6760      6768      6770      6764      6760      6768      6771
      6764      6760      6772      6773      6764      6760      6772      6774
      6764      6760      6772      6775      6765      6764      6760      6768
      6765      6764      6760      6772      6766      6764      6760      6768
      6766      6764      6760      6772      6767      6764      6760      6768
      6767      6764      6760      6772      6768      6760      6761      6776
      6768      6760      6772      6773      6768      6760      6772      6774
      6768      6760      6772      6775      6769      6768      6760      6772
      6770      6768      6760      6772      6771      6768      6760      6772
      6772      6760      6761      6776      6776      6782      6779      6780
      6776      6782      6779      6781      6776      6782      6779      6783
      6777      6776      6782      6779      6778      6776      6782      6779
      6779      6783      6784      6785      6779      6783      6784      6786
      6779      6783      6784      6787      6780      6779      6783      6784
      6781      6779      6783      6784      6782      6779      6783      6784
      6783      6784      6787      6788      6783      6784      6787      6789
      6783      6784      6787      6795      6784      6787      6789      6790
      6784      6787      6795      6796      6784      6787      6795      6797
      6784      6787      6795      6798      6785      6784      6787      6788
      6785      6784      6787      6789      6785      6784      6787      6795
      6786      6784      6787      6788      6786      6784      6787      6789
      6786      6784      6787      6795      6787      6789      6790      6791
      6787      6789      6790      6792      6787      6795      6798      6799
      6788      6787      6789      6790      6788      6787      6795      6796
      6788      6787      6795      6797      6788      6787      6795      6798
      6789      6787      6795      6796      6789      6787      6795      6797
      6789      6787      6795      6798      6789      6790      6792      6793
      6789      6790      6792      6794      6789      6790      6792      6804
      6790      6789      6787      6795      6790      6792      6804      6805
      6790      6792      6804      6806      6790      6792      6804      6807
      6791      6790      6792      6793      6791      6790      6792      6794
      6791      6790      6792      6804      6792      6804      6807      6808
      6792      6804      6807      6809      6792      6804      6807      6810
      6793      6792      6804      6805      6793      6792      6804      6806
      6793      6792      6804      6807      6794      6792      6804      6805
      6794      6792      6804      6806      6794      6792      6804      6807
      6795      6798      6799      6800      6795      6798      6799      6801
      6796      6795      6798      6799      6797      6795      6798      6799
      6798      6799      6801      6802      6798      6799      6801      6803
      6798      6799      6801      6851      6799      6801      6851      6852
      6799      6801      6851      6853      6799      6801      6851      6854
      6800      6799      6801      6802      6800      6799      6801      6803
      6800      6799      6801      6851      6801      6851      6854      6855
      6801      6851      6854      6856      6801      6851      6854      6857
      6802      6801      6851      6852      6802      6801      6851      6853
      6802      6801      6851      6854      6803      6801      6851      6852
      6803      6801      6851      6853      6803      6801      6851      6854
      6804      6807      6810      6811      6804      6807      6810      6812
      6804      6807      6810      6813      6805      6804      6807      6808
      6805      6804      6807      6809      6805      6804      6807      6810
      6806      6804      6807      6808      6806      6804      6807      6809
      6806      6804      6807      6810      6807      6810      6813      6814
      6807      6810      6813      6815      6807      6810      6813      6816
      6808      6807      6810      6811      6808      6807      6810      6812
      6808      6807      6810      6813      6809      6807      6810      6811
      6809      6807      6810      6812      6809      6807      6810      6813
      6810      6813      6816      6817      6810      6813      6816      6818
      6810      6813      6816      6819      6811      6810      6813      6814
      6811      6810      6813      6815      6811      6810      6813      6816
      6812      6810      6813      6814      6812      6810      6813      6815
      6812      6810      6813      6816      6813      6816      6819      6820
      6813      6816      6819      6821      6813      6816      6819      6822
      6814      6813      6816      6817      6814      6813      6816      6818
      6814      6813      6816      6819      6815      6813      6816      6817
      6815      6813      6816      6818      6815      6813      6816      6819
      6816      6819      6822      6823      6816      6819      6822      6824
      6817      6816      6819      6820      6817      6816      6819      6821
      6817      6816      6819      6822      6818      6816      6819      6820
      6818      6816      6819      6821      6818      6816      6819      6822
      6819      6822      6824      6825      6819      6822      6824      6826
      6820      6819      6822      6823      6820      6819      6822      6824
      6821      6819      6822      6823      6821      6819      6822      6824
      6822      6824      6826      6827      6822      6824      6826      6828
      6822      6824      6826      6829      6823      6822      6824      6825
      6823      6822      6824      6826      6824      6826      6829      6830
      6824      6826      6829      6831      6824      6826      6829      6832
      6825      6824      6826      6827      6825      6824      6826      6828
      6825      6824      6826      6829      6826      6829      6832      6833
      6826      6829      6832      6834      6826      6829      6832      6835
      6827      6826      6829      6830      6827      6826      6829      6831
      6827      6826      6829      6832      6828      6826      6829      6830
      6828      6826      6829      6831      6828      6826      6829      6832
      6829      6832      6835      6836      6829      6832      6835      6837
      6829      6832      6835      6838      6830      6829      6832      6833
      6830      6829      6832      6834      6830      6829      6832      6835
      6831      6829      6832      6833      6831      6829      6832      6834
      6831      6829      6832      6835      6832      6835      6838      6839
      6832      6835      6838      6840      6832      6835      6838      6841
      6833      6832      6835      6836      6833      6832      6835      6837
      6833      6832      6835      6838      6834      6832      6835      6836
      6834      6832      6835      6837      6834      6832      6835      6838
      6835      6838      6841      6842      6835      6838      6841      6843
      6835      6838      6841      6844      6836      6835      6838      6839
      6836      6835      6838      6840      6836      6835      6838      6841
      6837      6835      6838      6839      6837      6835      6838      6840
      6837      6835      6838      6841      6838      6841      6844      6845
      6838      6841      6844      6846      6838      6841      6844      6847
      6839      6838      6841      6842      6839      6838      6841      6843
      6839      6838      6841      6844      6840      6838      6841      6842
      6840      6838      6841      6843      6840      6838      6841      6844
      6841      6844      6847      6848      6841      6844      6847      6849
      6841      6844      6847      6850      6842      6841      6844      6845
      6842      6841      6844      6846      6842      6841      6844      6847
      6843      6841      6844      6845      6843      6841      6844      6846
      6843      6841      6844      6847      6845      6844      6847      6848
      6845      6844      6847      6849      6845      6844      6847      6850
      6846      6844      6847      6848      6846      6844      6847      6849
      6846      6844      6847      6850      6851      6854      6857      6858
      6851      6854      6857      6859      6851      6854      6857      6860
      6852      6851      6854      6855      6852      6851      6854      6856
      6852      6851      6854      6857      6853      6851      6854      6855
      6853      6851      6854      6856      6853      6851      6854      6857
      6854      6857      6860      6861      6854      6857      6860      6862
      6854      6857      6860      6863      6855      6854      6857      6858
      6855      6854      6857      6859      6855      6854      6857      6860
      6856      6854      6857      6858      6856      6854      6857      6859
      6856      6854      6857      6860      6857      6860      6863      6864
      6857      6860      6863      6865      6857      6860      6863      6866
      6858      6857      6860      6861      6858      6857      6860      6862
      6858      6857      6860      6863      6859      6857      6860      6861
      6859      6857      6860      6862      6859      6857      6860      6863
      6860      6863      6866      6867      6860      6863      6866      6868
      6860      6863      6866      6869      6861      6860      6863      6864
      6861      6860      6863      6865      6861      6860      6863      6866
      6862      6860      6863      6864      6862      6860      6863      6865
      6862      6860      6863      6866      6863      6866      6869      6870
      6863      6866      6869      6871      6863      6866      6869      6872
      6864      6863      6866      6867      6864      6863      6866      6868
      6864      6863      6866      6869      6865      6863      6866      6867
      6865      6863      6866      6868      6865      6863      6866      6869
      6866      6869      6872      6873      6866      6869      6872      6874
      6866      6869      6872      6875      6867      6866      6869      6870
      6867      6866      6869      6871      6867      6866      6869      6872
      6868      6866      6869      6870      6868      6866      6869      6871
      6868      6866      6869      6872      6869      6872      6875      6876
      6869      6872      6875      6877      6869      6872      6875      6878
      6870      6869      6872      6873      6870      6869      6872      6874
      6870      6869      6872      6875      6871      6869      6872      6873
      6871      6869      6872      6874      6871      6869      6872      6875
      6872      6875      6878      6879      6872      6875      6878      6880
      6872      6875      6878      6881      6873      6872      6875      6876
      6873      6872      6875      6877      6873      6872      6875      6878
      6874      6872      6875      6876      6874      6872      6875      6877
      6874      6872      6875      6878      6875      6878      6881      6882
      6875      6878      6881      6883      6875      6878      6881      6884
      6876      6875      6878      6879      6876      6875      6878      6880
      6876      6875      6878      6881      6877      6875      6878      6879
      6877      6875      6878      6880      6877      6875      6878      6881
      6878      6881      6884      6885      6878      6881      6884      6886
      6878      6881      6884      6887      6879      6878      6881      6882
      6879      6878      6881      6883      6879      6878      6881      6884
      6880      6878      6881      6882      6880      6878      6881      6883
      6880      6878      6881      6884      6881      6884      6887      6888
      6881      6884      6887      6889      6881      6884      6887      6890
      6882      6881      6884      6885      6882      6881      6884      6886
      6882      6881      6884      6887      6883      6881      6884      6885
      6883      6881      6884      6886      6883      6881      6884      6887
      6884      6887      6890      6891      6884      6887      6890      6892
      6884      6887      6890      6893      6885      6884      6887      6888
      6885      6884      6887      6889      6885      6884      6887      6890
      6886      6884      6887      6888      6886      6884      6887      6889
      6886      6884      6887      6890      6888      6887      6890      6891
      6888      6887      6890      6892      6888      6887      6890      6893
      6889      6887      6890      6891      6889      6887      6890      6892
      6889      6887      6890      6893      6894      6895      6910      6911
      6894      6895      6910      6912      6894      6895      6910      6916
      6895      6894      6898      6899      6895      6894      6898      6900
      6895      6894      6898      6901      6895      6894      6902      6903
      6895      6894      6902      6904      6895      6894      6902      6905
      6895      6894      6906      6907      6895      6894      6906      6908
      6895      6894      6906      6909      6895      6910      6916      6913
      6896      6895      6894      6898      6896      6895      6894      6902
      6896      6895      6894      6906      6896      6895      6910      6911
      6896      6895      6910      6912      6896      6895      6910      6916
      6897      6895      6894      6898      6897      6895      6894      6902
      6897      6895      6894      6906      6897      6895      6910      6911
      6897      6895      6910      6912      6897      6895      6910      6916
      6898      6894      6895      6910      6898      6894      6902      6903
      6898      6894      6902      6904      6898      6894      6902      6905
      6898      6894      6906      6907      6898      6894      6906      6908
      6898      6894      6906      6909      6899      6898      6894      6902
      6899      6898      6894      6906      6900      6898      6894      6902
      6900      6898      6894      6906      6901      6898      6894      6902
      6901      6898      6894      6906      6902      6894      6895      6910
      6902      6894      6906      6907      6902      6894      6906      6908
      6902      6894      6906      6909      6903      6902      6894      6906
      6904      6902      6894      6906      6905      6902      6894      6906
      6906      6894      6895      6910      6910      6916      6913      6914
      6910      6916      6913      6915      6910      6916      6913      6917
      6911      6910      6916      6913      6912      6910      6916      6913
      6913      6917      6918      6919      6913      6917      6918      6920
      6913      6917      6918      6921      6914      6913      6917      6918
      6915      6913      6917      6918      6916      6913      6917      6918
      6917      6918      6921      6922      6917      6918      6921      6923
      6917      6918      6921      6929      6918      6921      6923      6924
      6918      6921      6929      6930      6918      6921      6929      6931
      6918      6921      6929      6932      6919      6918      6921      6922
      6919      6918      6921      6923      6919      6918      6921      6929
      6920      6918      6921      6922      6920      6918      6921      6923
      6920      6918      6921      6929      6921      6923      6924      6925
      6921      6923      6924      6926      6921      6929      6932      6933
      6922      6921      6923      6924      6922      6921      6929      6930
      6922      6921      6929      6931      6922      6921      6929      6932
      6923      6921      6929      6930      6923      6921      6929      6931
      6923      6921      6929      6932      6923      6924      6926      6927
      6923      6924      6926      6928      6923      6924      6926      6938
      6924      6923      6921      6929      6924      6926      6938      6939
      6924      6926      6938      6940      6924      6926      6938      6941
      6925      6924      6926      6927      6925      6924      6926      6928
      6925      6924      6926      6938      6926      6938      6941      6942
      6926      6938      6941      6943      6926      6938      6941      6944
      6927      6926      6938      6939      6927      6926      6938      6940
      6927      6926      6938      6941      6928      6926      6938      6939
      6928      6926      6938      6940      6928      6926      6938      6941
      6929      6932      6933      6934      6929      6932      6933      6935
      6930      6929      6932      6933      6931      6929      6932      6933
      6932      6933      6935      6936      6932      6933      6935      6937
      6932      6933      6935      6985      6933      6935      6985      6986
      6933      6935      6985      6987      6933      6935      6985      6988
      6934      6933      6935      6936      6934      6933      6935      6937
      6934      6933      6935      6985      6935      6985      6988      6989
      6935      6985      6988      6990      6935      6985      6988      6991
      6936      6935      6985      6986      6936      6935      6985      6987
      6936      6935      6985      6988      6937      6935      6985      6986
      6937      6935      6985      6987      6937      6935      6985      6988
      6938      6941      6944      6945      6938      6941      6944      6946
      6938      6941      6944      6947      6939      6938      6941      6942
      6939      6938      6941      6943      6939      6938      6941      6944
      6940      6938      6941      6942      6940      6938      6941      6943
      6940      6938      6941      6944      6941      6944      6947      6948
      6941      6944      6947      6949      6941      6944      6947      6950
      6942      6941      6944      6945      6942      6941      6944      6946
      6942      6941      6944      6947      6943      6941      6944      6945
      6943      6941      6944      6946      6943      6941      6944      6947
      6944      6947      6950      6951      6944      6947      6950      6952
      6944      6947      6950      6953      6945      6944      6947      6948
      6945      6944      6947      6949      6945      6944      6947      6950
      6946      6944      6947      6948      6946      6944      6947      6949
      6946      6944      6947      6950      6947      6950      6953      6954
      6947      6950      6953      6955      6947      6950      6953      6956
      6948      6947      6950      6951      6948      6947      6950      6952
      6948      6947      6950      6953      6949      6947      6950      6951
      6949      6947      6950      6952      6949      6947      6950      6953
      6950      6953      6956      6957      6950      6953      6956      6958
      6951      6950      6953      6954      6951      6950      6953      6955
      6951      6950      6953      6956      6952      6950      6953      6954
      6952      6950      6953      6955      6952      6950      6953      6956
      6953      6956      6958      6959      6953      6956      6958      6960
      6954      6953      6956      6957      6954      6953      6956      6958
      6955      6953      6956      6957      6955      6953      6956      6958
      6956      6958      6960      6961      6956      6958      6960      6962
      6956      6958      6960      6963      6957      6956      6958      6959
      6957      6956      6958      6960      6958      6960      6963      6964
      6958      6960      6963      6965      6958      6960      6963      6966
      6959      6958      6960      6961      6959      6958      6960      6962
      6959      6958      6960      6963      6960      6963      6966      6967
      6960      6963      6966      6968      6960      6963      6966      6969
      6961      6960      6963      6964      6961      6960      6963      6965
      6961      6960      6963      6966      6962      6960      6963      6964
      6962      6960      6963      6965      6962      6960      6963      6966
      6963      6966      6969      6970      6963      6966      6969      6971
      6963      6966      6969      6972      6964      6963      6966      6967
      6964      6963      6966      6968      6964      6963      6966      6969
      6965      6963      6966      6967      6965      6963      6966      6968
      6965      6963      6966      6969      6966      6969      6972      6973
      6966      6969      6972      6974      6966      6969      6972      6975
      6967      6966      6969      6970      6967      6966      6969      6971
      6967      6966      6969      6972      6968      6966      6969      6970
      6968      6966      6969      6971      6968      6966      6969      6972
      6969      6972      6975      6976      6969      6972      6975      6977
      6969      6972      6975      6978      6970      6969      6972      6973
      6970      6969      6972      6974      6970      6969      6972      6975
      6971      6969      6972      6973      6971      6969      6972      6974
      6971      6969      6972      6975      6972      6975      6978      6979
      6972      6975      6978      6980      6972      6975      6978      6981
      6973      6972      6975      6976      6973      6972      6975      6977
      6973      6972      6975      6978      6974      6972      6975      6976
      6974      6972      6975      6977      6974      6972      6975      6978
      6975      6978      6981      6982      6975      6978      6981      6983
      6975      6978      6981      6984      6976      6975      6978      6979
      6976      6975      6978      6980      6976      6975      6978      6981
      6977      6975      6978      6979      6977      6975      6978      6980
      6977      6975      6978      6981      6979      6978      6981      6982
      6979      6978      6981      6983      6979      6978      6981      6984
      6980      6978      6981      6982      6980      6978      6981      6983
      6980      6978      6981      6984      6985      6988      6991      6992
      6985      6988      6991      6993      6985      6988      6991      6994
      6986      6985      6988      6989      6986      6985      6988      6990
      6986      6985      6988      6991      6987      6985      6988      6989
      6987      6985      6988      6990      6987      6985      6988      6991
      6988      6991      6994      6995      6988      6991      6994      6996
      6988      6991      6994      6997      6989      6988      6991      6992
      6989      6988      6991      6993      6989      6988      6991      6994
      6990      6988      6991      6992      6990      6988      6991      6993
      6990      6988      6991      6994      6991      6994      6997      6998
      6991      6994      6997      6999      6991      6994      6997      7000
      6992      6991      6994      6995      6992      6991      6994      6996
      6992      6991      6994      6997      6993      6991      6994      6995
      6993      6991      6994      6996      6993      6991      6994      6997
      6994      6997      7000      7001      6994      6997      7000      7002
      6994      6997      7000      7003      6995      6994      6997      6998
      6995      6994      6997      6999      6995      6994      6997      7000
      6996      6994      6997      6998      6996      6994      6997      6999
      6996      6994      6997      7000      6997      7000      7003      7004
      6997      7000      7003      7005      6997      7000      7003      7006
      6998      6997      7000      7001      6998      6997      7000      7002
      6998      6997      7000      7003      6999      6997      7000      7001
      6999      6997      7000      7002      6999      6997      7000      7003
      7000      7003      7006      7007      7000      7003      7006      7008
      7000      7003      7006      7009      7001      7000      7003      7004
      7001      7000      7003      7005      7001      7000      7003      7006
      7002      7000      7003      7004      7002      7000      7003      7005
      7002      7000      7003      7006      7003      7006      7009      7010
      7003      7006      7009      7011      7003      7006      7009      7012
      7004      7003      7006      7007      7004      7003      7006      7008
      7004      7003      7006      7009      7005      7003      7006      7007
      7005      7003      7006      7008      7005      7003      7006      7009
      7006      7009      7012      7013      7006      7009      7012      7014
      7006      7009      7012      7015      7007      7006      7009      7010
      7007      7006      7009      7011      7007      7006      7009      7012
      7008      7006      7009      7010      7008      7006      7009      7011
      7008      7006      7009      7012      7009      7012      7015      7016
      7009      7012      7015      7017      7009      7012      7015      7018
      7010      7009      7012      7013      7010      7009      7012      7014
      7010      7009      7012      7015      7011      7009      7012      7013
      7011      7009      7012      7014      7011      7009      7012      7015
      7012      7015      7018      7019      7012      7015      7018      7020
      7012      7015      7018      7021      7013      7012      7015      7016
      7013      7012      7015      7017      7013      7012      7015      7018
      7014      7012      7015      7016      7014      7012      7015      7017
      7014      7012      7015      7018      7015      7018      7021      7022
      7015      7018      7021      7023      7015      7018      7021      7024
      7016      7015      7018      7019      7016      7015      7018      7020
      7016      7015      7018      7021      7017      7015      7018      7019
      7017      7015      7018      7020      7017      7015      7018      7021
      7018      7021      7024      7025      7018      7021      7024      7026
      7018      7021      7024      7027      7019      7018      7021      7022
      7019      7018      7021      7023      7019      7018      7021      7024
      7020      7018      7021      7022      7020      7018      7021      7023
      7020      7018      7021      7024      7022      7021      7024      7025
      7022      7021      7024      7026      7022      7021      7024      7027
      7023      7021      7024      7025      7023      7021      7024      7026
      7023      7021      7024      7027      7028      7029      7044      7045
      7028      7029      7044      7046      7028      7029      7044      7050
      7029      7028      7032      7033      7029      7028      7032      7034
      7029      7028      7032      7035      7029      7028      7036      7037
      7029      7028      7036      7038      7029      7028      7036      7039
      7029      7028      7040      7041      7029      7028      7040      7042
      7029      7028      7040      7043      7029      7044      7050      7047
      7030      7029      7028      7032      7030      7029      7028      7036
      7030      7029      7028      7040      7030      7029      7044      7045
      7030      7029      7044      7046      7030      7029      7044      7050
      7031      7029      7028      7032      7031      7029      7028      7036
      7031      7029      7028      7040      7031      7029      7044      7045
      7031      7029      7044      7046      7031      7029      7044      7050
      7032      7028      7029      7044      7032      7028      7036      7037
      7032      7028      7036      7038      7032      7028      7036      7039
      7032      7028      7040      7041      7032      7028      7040      7042
      7032      7028      7040      7043      7033      7032      7028      7036
      7033      7032      7028      7040      7034      7032      7028      7036
      7034      7032      7028      7040      7035      7032      7028      7036
      7035      7032      7028      7040      7036      7028      7029      7044
      7036      7028      7040      7041      7036      7028      7040      7042
      7036      7028      7040      7043      7037      7036      7028      7040
      7038      7036      7028      7040      7039      7036      7028      7040
      7040      7028      7029      7044      7044      7050      7047      7048
      7044      7050      7047      7049      7044      7050      7047      7051
      7045      7044      7050      7047      7046      7044      7050      7047
      7047      7051      7052      7053      7047      7051      7052      7054
      7047      7051      7052      7055      7048      7047      7051      7052
      7049      7047      7051      7052      7050      7047      7051      7052
      7051      7052      7055      7056      7051      7052      7055      7057
      7051      7052      7055      7063      7052      7055      7057      7058
      7052      7055      7063      7064      7052      7055      7063      7065
      7052      7055      7063      7066      7053      7052      7055      7056
      7053      7052      7055      7057      7053      7052      7055      7063
      7054      7052      7055      7056      7054      7052      7055      7057
      7054      7052      7055      7063      7055      7057      7058      7059
      7055      7057      7058      7060      7055      7063      7066      7067
      7056      7055      7057      7058      7056      7055      7063      7064
      7056      7055      7063      7065      7056      7055      7063      7066
      7057      7055      7063      7064      7057      7055      7063      7065
      7057      7055      7063      7066      7057      7058      7060      7061
      7057      7058      7060      7062      7057      7058      7060      7072
      7058      7057      7055      7063      7058      7060      7072      7073
      7058      7060      7072      7074      7058      7060      7072      7075
      7059      7058      7060      7061      7059      7058      7060      7062
      7059      7058      7060      7072      7060      7072      7075      7076
      7060      7072      7075      7077      7060      7072      7075      7078
      7061      7060      7072      7073      7061      7060      7072      7074
      7061      7060      7072      7075      7062      7060      7072      7073
      7062      7060      7072      7074      7062      7060      7072      7075
      7063      7066      7067      7068      7063      7066      7067      7069
      7064      7063      7066      7067      7065      7063      7066      7067
      7066      7067      7069      7070      7066      7067      7069      7071
      7066      7067      7069      7119      7067      7069      7119      7120
      7067      7069      7119      7121      7067      7069      7119      7122
      7068      7067      7069      7070      7068      7067      7069      7071
      7068      7067      7069      7119      7069      7119      7122      7123
      7069      7119      7122      7124      7069      7119      7122      7125
      7070      7069      7119      7120      7070      7069      7119      7121
      7070      7069      7119      7122      7071      7069      7119      7120
      7071      7069      7119      7121      7071      7069      7119      7122
      7072      7075      7078      7079      7072      7075      7078      7080
      7072      7075      7078      7081      7073      7072      7075      7076
      7073      7072      7075      7077      7073      7072      7075      7078
      7074      7072      7075      7076      7074      7072      7075      7077
      7074      7072      7075      7078      7075      7078      7081      7082
      7075      7078      7081      7083      7075      7078      7081      7084
      7076      7075      7078      7079      7076      7075      7078      7080
      7076      7075      7078      7081      7077      7075      7078      7079
      7077      7075      7078      7080      7077      7075      7078      7081
      7078      7081      7084      7085      7078      7081      7084      7086
      7078      7081      7084      7087      7079      7078      7081      7082
      7079      7078      7081      7083      7079      7078      7081      7084
      7080      7078      7081      7082      7080      7078      7081      7083
      7080      7078      7081      7084      7081      7084      7087      7088
      7081      7084      7087      7089      7081      7084      7087      7090
      7082      7081      7084      7085      7082      7081      7084      7086
      7082      7081      7084      7087      7083      7081      7084      7085
      7083      7081      7084      7086      7083      7081      7084      7087
      7084      7087      7090      7091      7084      7087      7090      7092
      7085      7084      7087      7088      7085      7084      7087      7089
      7085      7084      7087      7090      7086      7084      7087      7088
      7086      7084      7087      7089      7086      7084      7087      7090
      7087      7090      7092      7093      7087      7090      7092      7094
      7088      7087      7090      7091      7088      7087      7090      7092
      7089      7087      7090      7091      7089      7087      7090      7092
      7090      7092      7094      7095      7090      7092      7094      7096
      7090      7092      7094      7097      7091      7090      7092      7093
      7091      7090      7092      7094      7092      7094      7097      7098
      7092      7094      7097      7099      7092      7094      7097      7100
      7093      7092      7094      7095      7093      7092      7094      7096
      7093      7092      7094      7097      7094      7097      7100      7101
      7094      7097      7100      7102      7094      7097      7100      7103
      7095      7094      7097      7098      7095      7094      7097      7099
      7095      7094      7097      7100      7096      7094      7097      7098
      7096      7094      7097      7099      7096      7094      7097      7100
      7097      7100      7103      7104      7097      7100      7103      7105
      7097      7100      7103      7106      7098      7097      7100      7101
      7098      7097      7100      7102      7098      7097      7100      7103
      7099      7097      7100      7101      7099      7097      7100      7102
      7099      7097      7100      7103      7100      7103      7106      7107
      7100      7103      7106      7108      7100      7103      7106      7109
      7101      7100      7103      7104      7101      7100      7103      7105
      7101      7100      7103      7106      7102      7100      7103      7104
      7102      7100      7103      7105      7102      7100      7103      7106
      7103      7106      7109      7110      7103      7106      7109      7111
      7103      7106      7109      7112      7104      7103      7106      7107
      7104      7103      7106      7108      7104      7103      7106      7109
      7105      7103      7106      7107      7105      7103      7106      7108
      7105      7103      7106      7109      7106      7109      7112      7113
      7106      7109      7112      7114      7106      7109      7112      7115
      7107      7106      7109      7110      7107      7106      7109      7111
      7107      7106      7109      7112      7108      7106      7109      7110
      7108      7106      7109      7111      7108      7106      7109      7112
      7109      7112      7115      7116      7109      7112      7115      7117
      7109      7112      7115      7118      7110      7109      7112      7113
      7110      7109      7112      7114      7110      7109      7112      7115
      7111      7109      7112      7113      7111      7109      7112      7114
      7111      7109      7112      7115      7113      7112      7115      7116
      7113      7112      7115      7117      7113      7112      7115      7118
      7114      7112      7115      7116      7114      7112      7115      7117
      7114      7112      7115      7118      7119      7122      7125      7126
      7119      7122      7125      7127      7119      7122      7125      7128
      7120      7119      7122      7123      7120      7119      7122      7124
      7120      7119      7122      7125      7121      7119      7122      7123
      7121      7119      7122      7124      7121      7119      7122      7125
      7122      7125      7128      7129      7122      7125      7128      7130
      7122      7125      7128      7131      7123      7122      7125      7126
      7123      7122      7125      7127      7123      7122      7125      7128
      7124      7122      7125      7126      7124      7122      7125      7127
      7124      7122      7125      7128      7125      7128      7131      7132
      7125      7128      7131      7133      7125      7128      7131      7134
      7126      7125      7128      7129      7126      7125      7128      7130
      7126      7125      7128      7131      7127      7125      7128      7129
      7127      7125      7128      7130      7127      7125      7128      7131
      7128      7131      7134      7135      7128      7131      7134      7136
      7128      7131      7134      7137      7129      7128      7131      7132
      7129      7128      7131      7133      7129      7128      7131      7134
      7130      7128      7131      7132      7130      7128      7131      7133
      7130      7128      7131      7134      7131      7134      7137      7138
      7131      7134      7137      7139      7131      7134      7137      7140
      7132      7131      7134      7135      7132      7131      7134      7136
      7132      7131      7134      7137      7133      7131      7134      7135
      7133      7131      7134      7136      7133      7131      7134      7137
      7134      7137      7140      7141      7134      7137      7140      7142
      7134      7137      7140      7143      7135      7134      7137      7138
      7135      7134      7137      7139      7135      7134      7137      7140
      7136      7134      7137      7138      7136      7134      7137      7139
      7136      7134      7137      7140      7137      7140      7143      7144
      7137      7140      7143      7145      7137      7140      7143      7146
      7138      7137      7140      7141      7138      7137      7140      7142
      7138      7137      7140      7143      7139      7137      7140      7141
      7139      7137      7140      7142      7139      7137      7140      7143
      7140      7143      7146      7147      7140      7143      7146      7148
      7140      7143      7146      7149      7141      7140      7143      7144
      7141      7140      7143      7145      7141      7140      7143      7146
      7142      7140      7143      7144      7142      7140      7143      7145
      7142      7140      7143      7146      7143      7146      7149      7150
      7143      7146      7149      7151      7143      7146      7149      7152
      7144      7143      7146      7147      7144      7143      7146      7148
      7144      7143      7146      7149      7145      7143      7146      7147
      7145      7143      7146      7148      7145      7143      7146      7149
      7146      7149      7152      7153      7146      7149      7152      7154
      7146      7149      7152      7155      7147      7146      7149      7150
      7147      7146      7149      7151      7147      7146      7149      7152
      7148      7146      7149      7150      7148      7146      7149      7151
      7148      7146      7149      7152      7149      7152      7155      7156
      7149      7152      7155      7157      7149      7152      7155      7158
      7150      7149      7152      7153      7150      7149      7152      7154
      7150      7149      7152      7155      7151      7149      7152      7153
      7151      7149      7152      7154      7151      7149      7152      7155
      7152      7155      7158      7159      7152      7155      7158      7160
      7152      7155      7158      7161      7153      7152      7155      7156
      7153      7152      7155      7157      7153      7152      7155      7158
      7154      7152      7155      7156      7154      7152      7155      7157
      7154      7152      7155      7158      7156      7155      7158      7159
      7156      7155      7158      7160      7156      7155      7158      7161
      7157      7155      7158      7159      7157      7155      7158      7160
      7157      7155      7158      7161      7162      7163      7178      7179
      7162      7163      7178      7180      7162      7163      7178      7184
      7163      7162      7166      7167      7163      7162      7166      7168
      7163      7162      7166      7169      7163      7162      7170      7171
      7163      7162      7170      7172      7163      7162      7170      7173
      7163      7162      7174      7175      7163      7162      7174      7176
      7163      7162      7174      7177      7163      7178      7184      7181
      7164      7163      7162      7166      7164      7163      7162      7170
      7164      7163      7162      7174      7164      7163      7178      7179
      7164      7163      7178      7180      7164      7163      7178      7184
      7165      7163      7162      7166      7165      7163      7162      7170
      7165      7163      7162      7174      7165      7163      7178      7179
      7165      7163      7178      7180      7165      7163      7178      7184
      7166      7162      7163      7178      7166      7162      7170      7171
      7166      7162      7170      7172      7166      7162      7170      7173
      7166      7162      7174      7175      7166      7162      7174      7176
      7166      7162      7174      7177      7167      7166      7162      7170
      7167      7166      7162      7174      7168      7166      7162      7170
      7168      7166      7162      7174      7169      7166      7162      7170
      7169      7166      7162      7174      7170      7162      7163      7178
      7170      7162      7174      7175      7170      7162      7174      7176
      7170      7162      7174      7177      7171      7170      7162      7174
      7172      7170      7162      7174      7173      7170      7162      7174
      7174      7162      7163      7178      7178      7184      7181      7182
      7178      7184      7181      7183      7178      7184      7181      7185
      7179      7178      7184      7181      7180      7178      7184      7181
      7181      7185      7186      7187      7181      7185      7186      7188
      7181      7185      7186      7189      7182      7181      7185      7186
      7183      7181      7185      7186      7184      7181      7185      7186
      7185      7186      7189      7190      7185      7186      7189      7191
      7185      7186      7189      7197      7186      7189      7191      7192
      7186      7189      7197      7198      7186      7189      7197      7199
      7186      7189      7197      7200      7187      7186      7189      7190
      7187      7186      7189      7191      7187      7186      7189      7197
      7188      7186      7189      7190      7188      7186      7189      7191
      7188      7186      7189      7197      7189      7191      7192      7193
      7189      7191      7192      7194      7189      7197      7200      7201
      7190      7189      7191      7192      7190      7189      7197      7198
      7190      7189      7197      7199      7190      7189      7197      7200
      7191      7189      7197      7198      7191      7189      7197      7199
      7191      7189      7197      7200      7191      7192      7194      7195
      7191      7192      7194      7196      7191      7192      7194      7206
      7192      7191      7189      7197      7192      7194      7206      7207
      7192      7194      7206      7208      7192      7194      7206      7209
      7193      7192      7194      7195      7193      7192      7194      7196
      7193      7192      7194      7206      7194      7206      7209      7210
      7194      7206      7209      7211      7194      7206      7209      7212
      7195      7194      7206      7207      7195      7194      7206      7208
      7195      7194      7206      7209      7196      7194      7206      7207
      7196      7194      7206      7208      7196      7194      7206      7209
      7197      7200      7201      7202      7197      7200      7201      7203
      7198      7197      7200      7201      7199      7197      7200      7201
      7200      7201      7203      7204      7200      7201      7203      7205
      7200      7201      7203      7253      7201      7203      7253      7254
      7201      7203      7253      7255      7201      7203      7253      7256
      7202      7201      7203      7204      7202      7201      7203      7205
      7202      7201      7203      7253      7203      7253      7256      7257
      7203      7253      7256      7258      7203      7253      7256      7259
      7204      7203      7253      7254      7204      7203      7253      7255
      7204      7203      7253      7256      7205      7203      7253      7254
      7205      7203      7253      7255      7205      7203      7253      7256
      7206      7209      7212      7213      7206      7209      7212      7214
      7206      7209      7212      7215      7207      7206      7209      7210
      7207      7206      7209      7211      7207      7206      7209      7212
      7208      7206      7209      7210      7208      7206      7209      7211
      7208      7206      7209      7212      7209      7212      7215      7216
      7209      7212      7215      7217      7209      7212      7215      7218
      7210      7209      7212      7213      7210      7209      7212      7214
      7210      7209      7212      7215      7211      7209      7212      7213
      7211      7209      7212      7214      7211      7209      7212      7215
      7212      7215      7218      7219      7212      7215      7218      7220
      7212      7215      7218      7221      7213      7212      7215      7216
      7213      7212      7215      7217      7213      7212      7215      7218
      7214      7212      7215      7216      7214      7212      7215      7217
      7214      7212      7215      7218      7215      7218      7221      7222
      7215      7218      7221      7223      7215      7218      7221      7224
      7216      7215      7218      7219      7216      7215      7218      7220
      7216      7215      7218      7221      7217      7215      7218      7219
      7217      7215      7218      7220      7217      7215      7218      7221
      7218      7221      7224      7225      7218      7221      7224      7226
      7219      7218      7221      7222      7219      7218      7221      7223
      7219      7218      7221      7224      7220      7218      7221      7222
      7220      7218      7221      7223      7220      7218      7221      7224
      7221      7224      7226      7227      7221      7224      7226      7228
      7222      7221      7224      7225      7222      7221      7224      7226
      7223      7221      7224      7225      7223      7221      7224      7226
      7224      7226      7228      7229      7224      7226      7228      7230
      7224      7226      7228      7231      7225      7224      7226      7227
      7225      7224      7226      7228      7226      7228      7231      7232
      7226      7228      7231      7233      7226      7228      7231      7234
      7227      7226      7228      7229      7227      7226      7228      7230
      7227      7226      7228      7231      7228      7231      7234      7235
      7228      7231      7234      7236      7228      7231      7234      7237
      7229      7228      7231      7232      7229      7228      7231      7233
      7229      7228      7231      7234      7230      7228      7231      7232
      7230      7228      7231      7233      7230      7228      7231      7234
      7231      7234      7237      7238      7231      7234      7237      7239
      7231      7234      7237      7240      7232      7231      7234      7235
      7232      7231      7234      7236      7232      7231      7234      7237
      7233      7231      7234      7235      7233      7231      7234      7236
      7233      7231      7234      7237      7234      7237      7240      7241
      7234      7237      7240      7242      7234      7237      7240      7243
      7235      7234      7237      7238      7235      7234      7237      7239
      7235      7234      7237      7240      7236      7234      7237      7238
      7236      7234      7237      7239      7236      7234      7237      7240
      7237      7240      7243      7244      7237      7240      7243      7245
      7237      7240      7243      7246      7238      7237      7240      7241
      7238      7237      7240      7242      7238      7237      7240      7243
      7239      7237      7240      7241      7239      7237      7240      7242
      7239      7237      7240      7243      7240      7243      7246      7247
      7240      7243      7246      7248      7240      7243      7246      7249
      7241      7240      7243      7244      7241      7240      7243      7245
      7241      7240      7243      7246      7242      7240      7243      7244
      7242      7240      7243      7245      7242      7240      7243      7246
      7243      7246      7249      7250      7243      7246      7249      7251
      7243      7246      7249      7252      7244      7243      7246      7247
      7244      7243      7246      7248      7244      7243      7246      7249
      7245      7243      7246      7247      7245      7243      7246      7248
      7245      7243      7246      7249      7247      7246      7249      7250
      7247      7246      7249      7251      7247      7246      7249      7252
      7248      7246      7249      7250      7248      7246      7249      7251
      7248      7246      7249      7252      7253      7256      7259      7260
      7253      7256      7259      7261      7253      7256      7259      7262
      7254      7253      7256      7257      7254      7253      7256      7258
      7254      7253      7256      7259      7255      7253      7256      7257
      7255      7253      7256      7258      7255      7253      7256      7259
      7256      7259      7262      7263      7256      7259      7262      7264
      7256      7259      7262      7265      7257      7256      7259      7260
      7257      7256      7259      7261      7257      7256      7259      7262
      7258      7256      7259      7260      7258      7256      7259      7261
      7258      7256      7259      7262      7259      7262      7265      7266
      7259      7262      7265      7267      7259      7262      7265      7268
      7260      7259      7262      7263      7260      7259      7262      7264
      7260      7259      7262      7265      7261      7259      7262      7263
      7261      7259      7262      7264      7261      7259      7262      7265
      7262      7265      7268      7269      7262      7265      7268      7270
      7262      7265      7268      7271      7263      7262      7265      7266
      7263      7262      7265      7267      7263      7262      7265      7268
      7264      7262      7265      7266      7264      7262      7265      7267
      7264      7262      7265      7268      7265      7268      7271      7272
      7265      7268      7271      7273      7265      7268      7271      7274
      7266      7265      7268      7269      7266      7265      7268      7270
      7266      7265      7268      7271      7267      7265      7268      7269
      7267      7265      7268      7270      7267      7265      7268      7271
      7268      7271      7274      7275      7268      7271      7274      7276
      7268      7271      7274      7277      7269      7268      7271      7272
      7269      7268      7271      7273      7269      7268      7271      7274
      7270      7268      7271      7272      7270      7268      7271      7273
      7270      7268      7271      7274      7271      7274      7277      7278
      7271      7274      7277      7279      7271      7274      7277      7280
      7272      7271      7274      7275      7272      7271      7274      7276
      7272      7271      7274      7277      7273      7271      7274      7275
      7273      7271      7274      7276      7273      7271      7274      7277
      7274      7277      7280      7281      7274      7277      7280      7282
      7274      7277      7280      7283      7275      7274      7277      7278
      7275      7274      7277      7279      7275      7274      7277      7280
      7276      7274      7277      7278      7276      7274      7277      7279
      7276      7274      7277      7280      7277      7280      7283      7284
      7277      7280      7283      7285      7277      7280      7283      7286
      7278      7277      7280      7281      7278      7277      7280      7282
      7278      7277      7280      7283      7279      7277      7280      7281
      7279      7277      7280      7282      7279      7277      7280      7283
      7280      7283      7286      7287      7280      7283      7286      7288
      7280      7283      7286      7289      7281      7280      7283      7284
      7281      7280      7283      7285      7281      7280      7283      7286
      7282      7280      7283      7284      7282      7280      7283      7285
      7282      7280      7283      7286      7283      7286      7289      7290
      7283      7286      7289      7291      7283      7286      7289      7292
      7284      7283      7286      7287      7284      7283      7286      7288
      7284      7283      7286      7289      7285      7283      7286      7287
      7285      7283      7286      7288      7285      7283      7286      7289
      7286      7289      7292      7293      7286      7289      7292      7294
      7286      7289      7292      7295      7287      7286      7289      7290
      7287      7286      7289      7291      7287      7286      7289      7292
      7288      7286      7289      7290      7288      7286      7289      7291
      7288      7286      7289      7292      7290      7289      7292      7293
      7290      7289      7292      7294      7290      7289      7292      7295
      7291      7289      7292      7293      7291      7289      7292      7294
      7291      7289      7292      7295      7296      7297      7312      7313
      7296      7297      7312      7314      7296      7297      7312      7318
      7297      7296      7300      7301      7297      7296      7300      7302
      7297      7296      7300      7303      7297      7296      7304      7305
      7297      7296      7304      7306      7297      7296      7304      7307
      7297      7296      7308      7309      7297      7296      7308      7310
      7297      7296      7308      7311      7297      7312      7318      7315
      7298      7297      7296      7300      7298      7297      7296      7304
      7298      7297      7296      7308      7298      7297      7312      7313
      7298      7297      7312      7314      7298      7297      7312      7318
      7299      7297      7296      7300      7299      7297      7296      7304
      7299      7297      7296      7308      7299      7297      7312      7313
      7299      7297      7312      7314      7299      7297      7312      7318
      7300      7296      7297      7312      7300      7296      7304      7305
      7300      7296      7304      7306      7300      7296      7304      7307
      7300      7296      7308      7309      7300      7296      7308      7310
      7300      7296      7308      7311      7301      7300      7296      7304
      7301      7300      7296      7308      7302      7300      7296      7304
      7302      7300      7296      7308      7303      7300      7296      7304
      7303      7300      7296      7308      7304      7296      7297      7312
      7304      7296      7308      7309      7304      7296      7308      7310
      7304      7296      7308      7311      7305      7304      7296      7308
      7306      7304      7296      7308      7307      7304      7296      7308
      7308      7296      7297      7312      7312      7318      7315      7316
      7312      7318      7315      7317      7312      7318      7315      7319
      7313      7312      7318      7315      7314      7312      7318      7315
      7315      7319      7320      7321      7315      7319      7320      7322
      7315      7319      7320      7323      7316      7315      7319      7320
      7317      7315      7319      7320      7318      7315      7319      7320
      7319      7320      7323      7324      7319      7320      7323      7325
      7319      7320      7323      7331      7320      7323      7325      7326
      7320      7323      7331      7332      7320      7323      7331      7333
      7320      7323      7331      7334      7321      7320      7323      7324
      7321      7320      7323      7325      7321      7320      7323      7331
      7322      7320      7323      7324      7322      7320      7323      7325
      7322      7320      7323      7331      7323      7325      7326      7327
      7323      7325      7326      7328      7323      7331      7334      7335
      7324      7323      7325      7326      7324      7323      7331      7332
      7324      7323      7331      7333      7324      7323      7331      7334
      7325      7323      7331      7332      7325      7323      7331      7333
      7325      7323      7331      7334      7325      7326      7328      7329
      7325      7326      7328      7330      7325      7326      7328      7340
      7326      7325      7323      7331      7326      7328      7340      7341
      7326      7328      7340      7342      7326      7328      7340      7343
      7327      7326      7328      7329      7327      7326      7328      7330
      7327      7326      7328      7340      7328      7340      7343      7344
      7328      7340      7343      7345      7328      7340      7343      7346
      7329      7328      7340      7341      7329      7328      7340      7342
      7329      7328      7340      7343      7330      7328      7340      7341
      7330      7328      7340      7342      7330      7328      7340      7343
      7331      7334      7335      7336      7331      7334      7335      7337
      7332      7331      7334      7335      7333      7331      7334      7335
      7334      7335      7337      7338      7334      7335      7337      7339
      7334      7335      7337      7387      7335      7337      7387      7388
      7335      7337      7387      7389      7335      7337      7387      7390
      7336      7335      7337      7338      7336      7335      7337      7339
      7336      7335      7337      7387      7337      7387      7390      7391
      7337      7387      7390      7392      7337      7387      7390      7393
      7338      7337      7387      7388      7338      7337      7387      7389
      7338      7337      7387      7390      7339      7337      7387      7388
      7339      7337      7387      7389      7339      7337      7387      7390
      7340      7343      7346      7347      7340      7343      7346      7348
      7340      7343      7346      7349      7341      7340      7343      7344
      7341      7340      7343      7345      7341      7340      7343      7346
      7342      7340      7343      7344      7342      7340      7343      7345
      7342      7340      7343      7346      7343      7346      7349      7350
      7343      7346      7349      7351      7343      7346      7349      7352
      7344      7343      7346      7347      7344      7343      7346      7348
      7344      7343      7346      7349      7345      7343      7346      7347
      7345      7343      7346      7348      7345      7343      7346      7349
      7346      7349      7352      7353      7346      7349      7352      7354
      7346      7349      7352      7355      7347      7346      7349      7350
      7347      7346      7349      7351      7347      7346      7349      7352
      7348      7346      7349      7350      7348      7346      7349      7351
      7348      7346      7349      7352      7349      7352      7355      7356
      7349      7352      7355      7357      7349      7352      7355      7358
      7350      7349      7352      7353      7350      7349      7352      7354
      7350      7349      7352      7355      7351      7349      7352      7353
      7351      7349      7352      7354      7351      7349      7352      7355
      7352      7355      7358      7359      7352      7355      7358      7360
      7353      7352      7355      7356      7353      7352      7355      7357
      7353      7352      7355      7358      7354      7352      7355      7356
      7354      7352      7355      7357      7354      7352      7355      7358
      7355      7358      7360      7361      7355      7358      7360      7362
      7356      7355      7358      7359      7356      7355      7358      7360
      7357      7355      7358      7359      7357      7355      7358      7360
      7358      7360      7362      7363      7358      7360      7362      7364
      7358      7360      7362      7365      7359      7358      7360      7361
      7359      7358      7360      7362      7360      7362      7365      7366
      7360      7362      7365      7367      7360      7362      7365      7368
      7361      7360      7362      7363      7361      7360      7362      7364
      7361      7360      7362      7365      7362      7365      7368      7369
      7362      7365      7368      7370      7362      7365      7368      7371
      7363      7362      7365      7366      7363      7362      7365      7367
      7363      7362      7365      7368      7364      7362      7365      7366
      7364      7362      7365      7367      7364      7362      7365      7368
      7365      7368      7371      7372      7365      7368      7371      7373
      7365      7368      7371      7374      7366      7365      7368      7369
      7366      7365      7368      7370      7366      7365      7368      7371
      7367      7365      7368      7369      7367      7365      7368      7370
      7367      7365      7368      7371      7368      7371      7374      7375
      7368      7371      7374      7376      7368      7371      7374      7377
      7369      7368      7371      7372      7369      7368      7371      7373
      7369      7368      7371      7374      7370      7368      7371      7372
      7370      7368      7371      7373      7370      7368      7371      7374
      7371      7374      7377      7378      7371      7374      7377      7379
      7371      7374      7377      7380      7372      7371      7374      7375
      7372      7371      7374      7376      7372      7371      7374      7377
      7373      7371      7374      7375      7373      7371      7374      7376
      7373      7371      7374      7377      7374      7377      7380      7381
      7374      7377      7380      7382      7374      7377      7380      7383
      7375      7374      7377      7378      7375      7374      7377      7379
      7375      7374      7377      7380      7376      7374      7377      7378
      7376      7374      7377      7379      7376      7374      7377      7380
      7377      7380      7383      7384      7377      7380      7383      7385
      7377      7380      7383      7386      7378      7377      7380      7381
      7378      7377      7380      7382      7378      7377      7380      7383
      7379      7377      7380      7381      7379      7377      7380      7382
      7379      7377      7380      7383      7381      7380      7383      7384
      7381      7380      7383      7385      7381      7380      7383      7386
      7382      7380      7383      7384      7382      7380      7383      7385
      7382      7380      7383      7386      7387      7390      7393      7394
      7387      7390      7393      7395      7387      7390      7393      7396
      7388      7387      7390      7391      7388      7387      7390      7392
      7388      7387      7390      7393      7389      7387      7390      7391
      7389      7387      7390      7392      7389      7387      7390      7393
      7390      7393      7396      7397      7390      7393      7396      7398
      7390      7393      7396      7399      7391      7390      7393      7394
      7391      7390      7393      7395      7391      7390      7393      7396
      7392      7390      7393      7394      7392      7390      7393      7395
      7392      7390      7393      7396      7393      7396      7399      7400
      7393      7396      7399      7401      7393      7396      7399      7402
      7394      7393      7396      7397      7394      7393      7396      7398
      7394      7393      7396      7399      7395      7393      7396      7397
      7395      7393      7396      7398      7395      7393      7396      7399
      7396      7399      7402      7403      7396      7399      7402      7404
      7396      7399      7402      7405      7397      7396      7399      7400
      7397      7396      7399      7401      7397      7396      7399      7402
      7398      7396      7399      7400      7398      7396      7399      7401
      7398      7396      7399      7402      7399      7402      7405      7406
      7399      7402      7405      7407      7399      7402      7405      7408
      7400      7399      7402      7403      7400      7399      7402      7404
      7400      7399      7402      7405      7401      7399      7402      7403
      7401      7399      7402      7404      7401      7399      7402      7405
      7402      7405      7408      7409      7402      7405      7408      7410
      7402      7405      7408      7411      7403      7402      7405      7406
      7403      7402      7405      7407      7403      7402      7405      7408
      7404      7402      7405      7406      7404      7402      7405      7407
      7404      7402      7405      7408      7405      7408      7411      7412
      7405      7408      7411      7413      7405      7408      7411      7414
      7406      7405      7408      7409      7406      7405      7408      7410
      7406      7405      7408      7411      7407      7405      7408      7409
      7407      7405      7408      7410      7407      7405      7408      7411
      7408      7411      7414      7415      7408      7411      7414      7416
      7408      7411      7414      7417      7409      7408      7411      7412
      7409      7408      7411      7413      7409      7408      7411      7414
      7410      7408      7411      7412      7410      7408      7411      7413
      7410      7408      7411      7414      7411      7414      7417      7418
      7411      7414      7417      7419      7411      7414      7417      7420
      7412      7411      7414      7415      7412      7411      7414      7416
      7412      7411      7414      7417      7413      7411      7414      7415
      7413      7411      7414      7416      7413      7411      7414      7417
      7414      7417      7420      7421      7414      7417      7420      7422
      7414      7417      7420      7423      7415      7414      7417      7418
      7415      7414      7417      7419      7415      7414      7417      7420
      7416      7414      7417      7418      7416      7414      7417      7419
      7416      7414      7417      7420      7417      7420      7423      7424
      7417      7420      7423      7425      7417      7420      7423      7426
      7418      7417      7420      7421      7418      7417      7420      7422
      7418      7417      7420      7423      7419      7417      7420      7421
      7419      7417      7420      7422      7419      7417      7420      7423
      7420      7423      7426      7427      7420      7423      7426      7428
      7420      7423      7426      7429      7421      7420      7423      7424
      7421      7420      7423      7425      7421      7420      7423      7426
      7422      7420      7423      7424      7422      7420      7423      7425
      7422      7420      7423      7426      7424      7423      7426      7427
      7424      7423      7426      7428      7424      7423      7426      7429
      7425      7423      7426      7427      7425      7423      7426      7428
      7425      7423      7426      7429      7430      7431      7446      7447
      7430      7431      7446      7448      7430      7431      7446      7452
      7431      7430      7434      7435      7431      7430      7434      7436
      7431      7430      7434      7437      7431      7430      7438      7439
      7431      7430      7438      7440      7431      7430      7438      7441
      7431      7430      7442      7443      7431      7430      7442      7444
      7431      7430      7442      7445      7431      7446      7452      7449
      7432      7431      7430      7434      7432      7431      7430      7438
      7432      7431      7430      7442      7432      7431      7446      7447
      7432      7431      7446      7448      7432      7431      7446      7452
      7433      7431      7430      7434      7433      7431      7430      7438
      7433      7431      7430      7442      7433      7431      7446      7447
      7433      7431      7446      7448      7433      7431      7446      7452
      7434      7430      7431      7446      7434      7430      7438      7439
      7434      7430      7438      7440      7434      7430      7438      7441
      7434      7430      7442      7443      7434      7430      7442      7444
      7434      7430      7442      7445      7435      7434      7430      7438
      7435      7434      7430      7442      7436      7434      7430      7438
      7436      7434      7430      7442      7437      7434      7430      7438
      7437      7434      7430      7442      7438      7430      7431      7446
      7438      7430      7442      7443      7438      7430      7442      7444
      7438      7430      7442      7445      7439      7438      7430      7442
      7440      7438      7430      7442      7441      7438      7430      7442
      7442      7430      7431      7446      7446      7452      7449      7450
      7446      7452      7449      7451      7446      7452      7449      7453
      7447      7446      7452      7449      7448      7446      7452      7449
      7449      7453      7454      7455      7449      7453      7454      7456
      7449      7453      7454      7457      7450      7449      7453      7454
      7451      7449      7453      7454      7452      7449      7453      7454
      7453      7454      7457      7458      7453      7454      7457      7459
      7453      7454      7457      7465      7454      7457      7459      7460
      7454      7457      7465      7466      7454      7457      7465      7467
      7454      7457      7465      7468      7455      7454      7457      7458
      7455      7454      7457      7459      7455      7454      7457      7465
      7456      7454      7457      7458      7456      7454      7457      7459
      7456      7454      7457      7465      7457      7459      7460      7461
      7457      7459      7460      7462      7457      7465      7468      7469
      7458      7457      7459      7460      7458      7457      7465      7466
      7458      7457      7465      7467      7458      7457      7465      7468
      7459      7457      7465      7466      7459      7457      7465      7467
      7459      7457      7465      7468      7459      7460      7462      7463
      7459      7460      7462      7464      7459      7460      7462      7474
      7460      7459      7457      7465      7460      7462      7474      7475
      7460      7462      7474      7476      7460      7462      7474      7477
      7461      7460      7462      7463      7461      7460      7462      7464
      7461      7460      7462      7474      7462      7474      7477      7478
      7462      7474      7477      7479      7462      7474      7477      7480
      7463      7462      7474      7475      7463      7462      7474      7476
      7463      7462      7474      7477      7464      7462      7474      7475
      7464      7462      7474      7476      7464      7462      7474      7477
      7465      7468      7469      7470      7465      7468      7469      7471
      7466      7465      7468      7469      7467      7465      7468      7469
      7468      7469      7471      7472      7468      7469      7471      7473
      7468      7469      7471      7521      7469      7471      7521      7522
      7469      7471      7521      7523      7469      7471      7521      7524
      7470      7469      7471      7472      7470      7469      7471      7473
      7470      7469      7471      7521      7471      7521      7524      7525
      7471      7521      7524      7526      7471      7521      7524      7527
      7472      7471      7521      7522      7472      7471      7521      7523
      7472      7471      7521      7524      7473      7471      7521      7522
      7473      7471      7521      7523      7473      7471      7521      7524
      7474      7477      7480      7481      7474      7477      7480      7482
      7474      7477      7480      7483      7475      7474      7477      7478
      7475      7474      7477      7479      7475      7474      7477      7480
      7476      7474      7477      7478      7476      7474      7477      7479
      7476      7474      7477      7480      7477      7480      7483      7484
      7477      7480      7483      7485      7477      7480      7483      7486
      7478      7477      7480      7481      7478      7477      7480      7482
      7478      7477      7480      7483      7479      7477      7480      7481
      7479      7477      7480      7482      7479      7477      7480      7483
      7480      7483      7486      7487      7480      7483      7486      7488
      7480      7483      7486      7489      7481      7480      7483      7484
      7481      7480      7483      7485      7481      7480      7483      7486
      7482      7480      7483      7484      7482      7480      7483      7485
      7482      7480      7483      7486      7483      7486      7489      7490
      7483      7486      7489      7491      7483      7486      7489      7492
      7484      7483      7486      7487      7484      7483      7486      7488
      7484      7483      7486      7489      7485      7483      7486      7487
      7485      7483      7486      7488      7485      7483      7486      7489
      7486      7489      7492      7493      7486      7489      7492      7494
      7487      7486      7489      7490      7487      7486      7489      7491
      7487      7486      7489      7492      7488      7486      7489      7490
      7488      7486      7489      7491      7488      7486      7489      7492
      7489      7492      7494      7495      7489      7492      7494      7496
      7490      7489      7492      7493      7490      7489      7492      7494
      7491      7489      7492      7493      7491      7489      7492      7494
      7492      7494      7496      7497      7492      7494      7496      7498
      7492      7494      7496      7499      7493      7492      7494      7495
      7493      7492      7494      7496      7494      7496      7499      7500
      7494      7496      7499      7501      7494      7496      7499      7502
      7495      7494      7496      7497      7495      7494      7496      7498
      7495      7494      7496      7499      7496      7499      7502      7503
      7496      7499      7502      7504      7496      7499      7502      7505
      7497      7496      7499      7500      7497      7496      7499      7501
      7497      7496      7499      7502      7498      7496      7499      7500
      7498      7496      7499      7501      7498      7496      7499      7502
      7499      7502      7505      7506      7499      7502      7505      7507
      7499      7502      7505      7508      7500      7499      7502      7503
      7500      7499      7502      7504      7500      7499      7502      7505
      7501      7499      7502      7503      7501      7499      7502      7504
      7501      7499      7502      7505      7502      7505      7508      7509
      7502      7505      7508      7510      7502      7505      7508      7511
      7503      7502      7505      7506      7503      7502      7505      7507
      7503      7502      7505      7508      7504      7502      7505      7506
      7504      7502      7505      7507      7504      7502      7505      7508
      7505      7508      7511      7512      7505      7508      7511      7513
      7505      7508      7511      7514      7506      7505      7508      7509
      7506      7505      7508      7510      7506      7505      7508      7511
      7507      7505      7508      7509      7507      7505      7508      7510
      7507      7505      7508      7511      7508      7511      7514      7515
      7508      7511      7514      7516      7508      7511      7514      7517
      7509      7508      7511      7512      7509      7508      7511      7513
      7509      7508      7511      7514      7510      7508      7511      7512
      7510      7508      7511      7513      7510      7508      7511      7514
      7511      7514      7517      7518      7511      7514      7517      7519
      7511      7514      7517      7520      7512      7511      7514      7515
      7512      7511      7514      7516      7512      7511      7514      7517
      7513      7511      7514      7515      7513      7511      7514      7516
      7513      7511      7514      7517      7515      7514      7517      7518
      7515      7514      7517      7519      7515      7514      7517      7520
      7516      7514      7517      7518      7516      7514      7517      7519
      7516      7514      7517      7520      7521      7524      7527      7528
      7521      7524      7527      7529      7521      7524      7527      7530
      7522      7521      7524      7525      7522      7521      7524      7526
      7522      7521      7524      7527      7523      7521      7524      7525
      7523      7521      7524      7526      7523      7521      7524      7527
      7524      7527      7530      7531      7524      7527      7530      7532
      7524      7527      7530      7533      7525      7524      7527      7528
      7525      7524      7527      7529      7525      7524      7527      7530
      7526      7524      7527      7528      7526      7524      7527      7529
      7526      7524      7527      7530      7527      7530      7533      7534
      7527      7530      7533      7535      7527      7530      7533      7536
      7528      7527      7530      7531      7528      7527      7530      7532
      7528      7527      7530      7533      7529      7527      7530      7531
      7529      7527      7530      7532      7529      7527      7530      7533
      7530      7533      7536      7537      7530      7533      7536      7538
      7530      7533      7536      7539      7531      7530      7533      7534
      7531      7530      7533      7535      7531      7530      7533      7536
      7532      7530      7533      7534      7532      7530      7533      7535
      7532      7530      7533      7536      7533      7536      7539      7540
      7533      7536      7539      7541      7533      7536      7539      7542
      7534      7533      7536      7537      7534      7533      7536      7538
      7534      7533      7536      7539      7535      7533      7536      7537
      7535      7533      7536      7538      7535      7533      7536      7539
      7536      7539      7542      7543      7536      7539      7542      7544
      7536      7539      7542      7545      7537      7536      7539      7540
      7537      7536      7539      7541      7537      7536      7539      7542
      7538      7536      7539      7540      7538      7536      7539      7541
      7538      7536      7539      7542      7539      7542      7545      7546
      7539      7542      7545      7547      7539      7542      7545      7548
      7540      7539      7542      7543      7540      7539      7542      7544
      7540      7539      7542      7545      7541      7539      7542      7543
      7541      7539      7542      7544      7541      7539      7542      7545
      7542      7545      7548      7549      7542      7545      7548      7550
      7542      7545      7548      7551      7543      7542      7545      7546
      7543      7542      7545      7547      7543      7542      7545      7548
      7544      7542      7545      7546      7544      7542      7545      7547
      7544      7542      7545      7548      7545      7548      7551      7552
      7545      7548      7551      7553      7545      7548      7551      7554
      7546      7545      7548      7549      7546      7545      7548      7550
      7546      7545      7548      7551      7547      7545      7548      7549
      7547      7545      7548      7550      7547      7545      7548      7551
      7548      7551      7554      7555      7548      7551      7554      7556
      7548      7551      7554      7557      7549      7548      7551      7552
      7549      7548      7551      7553      7549      7548      7551      7554
      7550      7548      7551      7552      7550      7548      7551      7553
      7550      7548      7551      7554      7551      7554      7557      7558
      7551      7554      7557      7559      7551      7554      7557      7560
      7552      7551      7554      7555      7552      7551      7554      7556
      7552      7551      7554      7557      7553      7551      7554      7555
      7553      7551      7554      7556      7553      7551      7554      7557
      7554      7557      7560      7561      7554      7557      7560      7562
      7554      7557      7560      7563      7555      7554      7557      7558
      7555      7554      7557      7559      7555      7554      7557      7560
      7556      7554      7557      7558      7556      7554      7557      7559
      7556      7554      7557      7560      7558      7557      7560      7561
      7558      7557      7560      7562      7558      7557      7560      7563
      7559      7557      7560      7561      7559      7557      7560      7562
      7559      7557      7560      7563      7564      7565      7580      7581
      7564      7565      7580      7582      7564      7565      7580      7586
      7565      7564      7568      7569      7565      7564      7568      7570
      7565      7564      7568      7571      7565      7564      7572      7573
      7565      7564      7572      7574      7565      7564      7572      7575
      7565      7564      7576      7577      7565      7564      7576      7578
      7565      7564      7576      7579      7565      7580      7586      7583
      7566      7565      7564      7568      7566      7565      7564      7572
      7566      7565      7564      7576      7566      7565      7580      7581
      7566      7565      7580      7582      7566      7565      7580      7586
      7567      7565      7564      7568      7567      7565      7564      7572
      7567      7565      7564      7576      7567      7565      7580      7581
      7567      7565      7580      7582      7567      7565      7580      7586
      7568      7564      7565      7580      7568      7564      7572      7573
      7568      7564      7572      7574      7568      7564      7572      7575
      7568      7564      7576      7577      7568      7564      7576      7578
      7568      7564      7576      7579      7569      7568      7564      7572
      7569      7568      7564      7576      7570      7568      7564      7572
      7570      7568      7564      7576      7571      7568      7564      7572
      7571      7568      7564      7576      7572      7564      7565      7580
      7572      7564      7576      7577      7572      7564      7576      7578
      7572      7564      7576      7579      7573      7572      7564      7576
      7574      7572      7564      7576      7575      7572      7564      7576
      7576      7564      7565      7580      7580      7586      7583      7584
      7580      7586      7583      7585      7580      7586      7583      7587
      7581      7580      7586      7583      7582      7580      7586      7583
      7583      7587      7588      7589      7583      7587      7588      7590
      7583      7587      7588      7591      7584      7583      7587      7588
      7585      7583      7587      7588      7586      7583      7587      7588
      7587      7588      7591      7592      7587      7588      7591      7593
      7587      7588      7591      7599      7588      7591      7593      7594
      7588      7591      7599      7600      7588      7591      7599      7601
      7588      7591      7599      7602      7589      7588      7591      7592
      7589      7588      7591      7593      7589      7588      7591      7599
      7590      7588      7591      7592      7590      7588      7591      7593
      7590      7588      7591      7599      7591      7593      7594      7595
      7591      7593      7594      7596      7591      7599      7602      7603
      7592      7591      7593      7594      7592      7591      7599      7600
      7592      7591      7599      7601      7592      7591      7599      7602
      7593      7591      7599      7600      7593      7591      7599      7601
      7593      7591      7599      7602      7593      7594      7596      7597
      7593      7594      7596      7598      7593      7594      7596      7608
      7594      7593      7591      7599      7594      7596      7608      7609
      7594      7596      7608      7610      7594      7596      7608      7611
      7595      7594      7596      7597      7595      7594      7596      7598
      7595      7594      7596      7608      7596      7608      7611      7612
      7596      7608      7611      7613      7596      7608      7611      7614
      7597      7596      7608      7609      7597      7596      7608      7610
      7597      7596      7608      7611      7598      7596      7608      7609
      7598      7596      7608      7610      7598      7596      7608      7611
      7599      7602      7603      7604      7599      7602      7603      7605
      7600      7599      7602      7603      7601      7599      7602      7603
      7602      7603      7605      7606      7602      7603      7605      7607
      7602      7603      7605      7655      7603      7605      7655      7656
      7603      7605      7655      7657      7603      7605      7655      7658
      7604      7603      7605      7606      7604      7603      7605      7607
      7604      7603      7605      7655      7605      7655      7658      7659
      7605      7655      7658      7660      7605      7655      7658      7661
      7606      7605      7655      7656      7606      7605      7655      7657
      7606      7605      7655      7658      7607      7605      7655      7656
      7607      7605      7655      7657      7607      7605      7655      7658
      7608      7611      7614      7615      7608      7611      7614      7616
      7608      7611      7614      7617      7609      7608      7611      7612
      7609      7608      7611      7613      7609      7608      7611      7614
      7610      7608      7611      7612      7610      7608      7611      7613
      7610      7608      7611      7614      7611      7614      7617      7618
      7611      7614      7617      7619      7611      7614      7617      7620
      7612      7611      7614      7615      7612      7611      7614      7616
      7612      7611      7614      7617      7613      7611      7614      7615
      7613      7611      7614      7616      7613      7611      7614      7617
      7614      7617      7620      7621      7614      7617      7620      7622
      7614      7617      7620      7623      7615      7614      7617      7618
      7615      7614      7617      7619      7615      7614      7617      7620
      7616      7614      7617      7618      7616      7614      7617      7619
      7616      7614      7617      7620      7617      7620      7623      7624
      7617      7620      7623      7625      7617      7620      7623      7626
      7618      7617      7620      7621      7618      7617      7620      7622
      7618      7617      7620      7623      7619      7617      7620      7621
      7619      7617      7620      7622      7619      7617      7620      7623
      7620      7623      7626      7627      7620      7623      7626      7628
      7621      7620      7623      7624      7621      7620      7623      7625
      7621      7620      7623      7626      7622      7620      7623      7624
      7622      7620      7623      7625      7622      7620      7623      7626
      7623      7626      7628      7629      7623      7626      7628      7630
      7624      7623      7626      7627      7624      7623      7626      7628
      7625      7623      7626      7627      7625      7623      7626      7628
      7626      7628      7630      7631      7626      7628      7630      7632
      7626      7628      7630      7633      7627      7626      7628      7629
      7627      7626      7628      7630      7628      7630      7633      7634
      7628      7630      7633      7635      7628      7630      7633      7636
      7629      7628      7630      7631      7629      7628      7630      7632
      7629      7628      7630      7633      7630      7633      7636      7637
      7630      7633      7636      7638      7630      7633      7636      7639
      7631      7630      7633      7634      7631      7630      7633      7635
      7631      7630      7633      7636      7632      7630      7633      7634
      7632      7630      7633      7635      7632      7630      7633      7636
      7633      7636      7639      7640      7633      7636      7639      7641
      7633      7636      7639      7642      7634      7633      7636      7637
      7634      7633      7636      7638      7634      7633      7636      7639
      7635      7633      7636      7637      7635      7633      7636      7638
      7635      7633      7636      7639      7636      7639      7642      7643
      7636      7639      7642      7644      7636      7639      7642      7645
      7637      7636      7639      7640      7637      7636      7639      7641
      7637      7636      7639      7642      7638      7636      7639      7640
      7638      7636      7639      7641      7638      7636      7639      7642
      7639      7642      7645      7646      7639      7642      7645      7647
      7639      7642      7645      7648      7640      7639      7642      7643
      7640      7639      7642      7644      7640      7639      7642      7645
      7641      7639      7642      7643      7641      7639      7642      7644
      7641      7639      7642      7645      7642      7645      7648      7649
      7642      7645      7648      7650      7642      7645      7648      7651
      7643      7642      7645      7646      7643      7642      7645      7647
      7643      7642      7645      7648      7644      7642      7645      7646
      7644      7642      7645      7647      7644      7642      7645      7648
      7645      7648      7651      7652      7645      7648      7651      7653
      7645      7648      7651      7654      7646      7645      7648      7649
      7646      7645      7648      7650      7646      7645      7648      7651
      7647      7645      7648      7649      7647      7645      7648      7650
      7647      7645      7648      7651      7649      7648      7651      7652
      7649      7648      7651      7653      7649      7648      7651      7654
      7650      7648      7651      7652      7650      7648      7651      7653
      7650      7648      7651      7654      7655      7658      7661      7662
      7655      7658      7661      7663      7655      7658      7661      7664
      7656      7655      7658      7659      7656      7655      7658      7660
      7656      7655      7658      7661      7657      7655      7658      7659
      7657      7655      7658      7660      7657      7655      7658      7661
      7658      7661      7664      7665      7658      7661      7664      7666
      7658      7661      7664      7667      7659      7658      7661      7662
      7659      7658      7661      7663      7659      7658      7661      7664
      7660      7658      7661      7662      7660      7658      7661      7663
      7660      7658      7661      7664      7661      7664      7667      7668
      7661      7664      7667      7669      7661      7664      7667      7670
      7662      7661      7664      7665      7662      7661      7664      7666
      7662      7661      7664      7667      7663      7661      7664      7665
      7663      7661      7664      7666      7663      7661      7664      7667
      7664      7667      7670      7671      7664      7667      7670      7672
      7664      7667      7670      7673      7665      7664      7667      7668
      7665      7664      7667      7669      7665      7664      7667      7670
      7666      7664      7667      7668      7666      7664      7667      7669
      7666      7664      7667      7670      7667      7670      7673      7674
      7667      7670      7673      7675      7667      7670      7673      7676
      7668      7667      7670      7671      7668      7667      7670      7672
      7668      7667      7670      7673      7669      7667      7670      7671
      7669      7667      7670      7672      7669      7667      7670      7673
      7670      7673      7676      7677      7670      7673      7676      7678
      7670      7673      7676      7679      7671      7670      7673      7674
      7671      7670      7673      7675      7671      7670      7673      7676
      7672      7670      7673      7674      7672      7670      7673      7675
      7672      7670      7673      7676      7673      7676      7679      7680
      7673      7676      7679      7681      7673      7676      7679      7682
      7674      7673      7676      7677      7674      7673      7676      7678
      7674      7673      7676      7679      7675      7673      7676      7677
      7675      7673      7676      7678      7675      7673      7676      7679
      7676      7679      7682      7683      7676      7679      7682      7684
      7676      7679      7682      7685      7677      7676      7679      7680
      7677      7676      7679      7681      7677      7676      7679      7682
      7678      7676      7679      7680      7678      7676      7679      7681
      7678      7676      7679      7682      7679      7682      7685      7686
      7679      7682      7685      7687      7679      7682      7685      7688
      7680      7679      7682      7683      7680      7679      7682      7684
      7680      7679      7682      7685      7681      7679      7682      7683
      7681      7679      7682      7684      7681      7679      7682      7685
      7682      7685      7688      7689      7682      7685      7688      7690
      7682      7685      7688      7691      7683      7682      7685      7686
      7683      7682      7685      7687      7683      7682      7685      7688
      7684      7682      7685      7686      7684      7682      7685      7687
      7684      7682      7685      7688      7685      7688      7691      7692
      7685      7688      7691      7693      7685      7688      7691      7694
      7686      7685      7688      7689      7686      7685      7688      7690
      7686      7685      7688      7691      7687      7685      7688      7689
      7687      7685      7688      7690      7687      7685      7688      7691
      7688      7691      7694      7695      7688      7691      7694      7696
      7688      7691      7694      7697      7689      7688      7691      7692
      7689      7688      7691      7693      7689      7688      7691      7694
      7690      7688      7691      7692      7690      7688      7691      7693
      7690      7688      7691      7694      7692      7691      7694      7695
      7692      7691      7694      7696      7692      7691      7694      7697
      7693      7691      7694      7695      7693      7691      7694      7696
      7693      7691      7694      7697      7698      7699      7714      7715
      7698      7699      7714      7716      7698      7699      7714      7720
      7699      7698      7702      7703      7699      7698      7702      7704
      7699      7698      7702      7705      7699      7698      7706      7707
      7699      7698      7706      7708      7699      7698      7706      7709
      7699      7698      7710      7711      7699      7698      7710      7712
      7699      7698      7710      7713      7699      7714      7720      7717
      7700      7699      7698      7702      7700      7699      7698      7706
      7700      7699      7698      7710      7700      7699      7714      7715
      7700      7699      7714      7716      7700      7699      7714      7720
      7701      7699      7698      7702      7701      7699      7698      7706
      7701      7699      7698      7710      7701      7699      7714      7715
      7701      7699      7714      7716      7701      7699      7714      7720
      7702      7698      7699      7714      7702      7698      7706      7707
      7702      7698      7706      7708      7702      7698      7706      7709
      7702      7698      7710      7711      7702      7698      7710      7712
      7702      7698      7710      7713      7703      7702      7698      7706
      7703      7702      7698      7710      7704      7702      7698      7706
      7704      7702      7698      7710      7705      7702      7698      7706
      7705      7702      7698      7710      7706      7698      7699      7714
      7706      7698      7710      7711      7706      7698      7710      7712
      7706      7698      7710      7713      7707      7706      7698      7710
      7708      7706      7698      7710      7709      7706      7698      7710
      7710      7698      7699      7714      7714      7720      7717      7718
      7714      7720      7717      7719      7714      7720      7717      7721
      7715      7714      7720      7717      7716      7714      7720      7717
      7717      7721      7722      7723      7717      7721      7722      7724
      7717      7721      7722      7725      7718      7717      7721      7722
      7719      7717      7721      7722      7720      7717      7721      7722
      7721      7722      7725      7726      7721      7722      7725      7727
      7721      7722      7725      7733      7722      7725      7727      7728
      7722      7725      7733      7734      7722      7725      7733      7735
      7722      7725      7733      7736      7723      7722      7725      7726
      7723      7722      7725      7727      7723      7722      7725      7733
      7724      7722      7725      7726      7724      7722      7725      7727
      7724      7722      7725      7733      7725      7727      7728      7729
      7725      7727      7728      7730      7725      7733      7736      7737
      7726      7725      7727      7728      7726      7725      7733      7734
      7726      7725      7733      7735      7726      7725      7733      7736
      7727      7725      7733      7734      7727      7725      7733      7735
      7727      7725      7733      7736      7727      7728      7730      7731
      7727      7728      7730      7732      7727      7728      7730      7742
      7728      7727      7725      7733      7728      7730      7742      7743
      7728      7730      7742      7744      7728      7730      7742      7745
      7729      7728      7730      7731      7729      7728      7730      7732
      7729      7728      7730      7742      7730      7742      7745      7746
      7730      7742      7745      7747      7730      7742      7745      7748
      7731      7730      7742      7743      7731      7730      7742      7744
      7731      7730      7742      7745      7732      7730      7742      7743
      7732      7730      7742      7744      7732      7730      7742      7745
      7733      7736      7737      7738      7733      7736      7737      7739
      7734      7733      7736      7737      7735      7733      7736      7737
      7736      7737      7739      7740      7736      7737      7739      7741
      7736      7737      7739      7789      7737      7739      7789      7790
      7737      7739      7789      7791      7737      7739      7789      7792
      7738      7737      7739      7740      7738      7737      7739      7741
      7738      7737      7739      7789      7739      7789      7792      7793
      7739      7789      7792      7794      7739      7789      7792      7795
      7740      7739      7789      7790      7740      7739      7789      7791
      7740      7739      7789      7792      7741      7739      7789      7790
      7741      7739      7789      7791      7741      7739      7789      7792
      7742      7745      7748      7749      7742      7745      7748      7750
      7742      7745      7748      7751      7743      7742      7745      7746
      7743      7742      7745      7747      7743      7742      7745      7748
      7744      7742      7745      7746      7744      7742      7745      7747
      7744      7742      7745      7748      7745      7748      7751      7752
      7745      7748      7751      7753      7745      7748      7751      7754
      7746      7745      7748      7749      7746      7745      7748      7750
      7746      7745      7748      7751      7747      7745      7748      7749
      7747      7745      7748      7750      7747      7745      7748      7751
      7748      7751      7754      7755      7748      7751      7754      7756
      7748      7751      7754      7757      7749      7748      7751      7752
      7749      7748      7751      7753      7749      7748      7751      7754
      7750      7748      7751      7752      7750      7748      7751      7753
      7750      7748      7751      7754      7751      7754      7757      7758
      7751      7754      7757      7759      7751      7754      7757      7760
      7752      7751      7754      7755      7752      7751      7754      7756
      7752      7751      7754      7757      7753      7751      7754      7755
      7753      7751      7754      7756      7753      7751      7754      7757
      7754      7757      7760      7761      7754      7757      7760      7762
      7755      7754      7757      7758      7755      7754      7757      7759
      7755      7754      7757      7760      7756      7754      7757      7758
      7756      7754      7757      7759      7756      7754      7757      7760
      7757      7760      7762      7763      7757      7760      7762      7764
      7758      7757      7760      7761      7758      7757      7760      7762
      7759      7757      7760      7761      7759      7757      7760      7762
      7760      7762      7764      7765      7760      7762      7764      7766
      7760      7762      7764      7767      7761      7760      7762      7763
      7761      7760      7762      7764      7762      7764      7767      7768
      7762      7764      7767      7769      7762      7764      7767      7770
      7763      7762      7764      7765      7763      7762      7764      7766
      7763      7762      7764      7767      7764      7767      7770      7771
      7764      7767      7770      7772      7764      7767      7770      7773
      7765      7764      7767      7768      7765      7764      7767      7769
      7765      7764      7767      7770      7766      7764      7767      7768
      7766      7764      7767      7769      7766      7764      7767      7770
      7767      7770      7773      7774      7767      7770      7773      7775
      7767      7770      7773      7776      7768      7767      7770      7771
      7768      7767      7770      7772      7768      7767      7770      7773
      7769      7767      7770      7771      7769      7767      7770      7772
      7769      7767      7770      7773      7770      7773      7776      7777
      7770      7773      7776      7778      7770      7773      7776      7779
      7771      7770      7773      7774      7771      7770      7773      7775
      7771      7770      7773      7776      7772      7770      7773      7774
      7772      7770      7773      7775      7772      7770      7773      7776
      7773      7776      7779      7780      7773      7776      7779      7781
      7773      7776      7779      7782      7774      7773      7776      7777
      7774      7773      7776      7778      7774      7773      7776      7779
      7775      7773      7776      7777      7775      7773      7776      7778
      7775      7773      7776      7779      7776      7779      7782      7783
      7776      7779      7782      7784      7776      7779      7782      7785
      7777      7776      7779      7780      7777      7776      7779      7781
      7777      7776      7779      7782      7778      7776      7779      7780
      7778      7776      7779      7781      7778      7776      7779      7782
      7779      7782      7785      7786      7779      7782      7785      7787
      7779      7782      7785      7788      7780      7779      7782      7783
      7780      7779      7782      7784      7780      7779      7782      7785
      7781      7779      7782      7783      7781      7779      7782      7784
      7781      7779      7782      7785      7783      7782      7785      7786
      7783      7782      7785      7787      7783      7782      7785      7788
      7784      7782      7785      7786      7784      7782      7785      7787
      7784      7782      7785      7788      7789      7792      7795      7796
      7789      7792      7795      7797      7789      7792      7795      7798
      7790      7789      7792      7793      7790      7789      7792      7794
      7790      7789      7792      7795      7791      7789      7792      7793
      7791      7789      7792      7794      7791      7789      7792      7795
      7792      7795      7798      7799      7792      7795      7798      7800
      7792      7795      7798      7801      7793      7792      7795      7796
      7793      7792      7795      7797      7793      7792      7795      7798
      7794      7792      7795      7796      7794      7792      7795      7797
      7794      7792      7795      7798      7795      7798      7801      7802
      7795      7798      7801      7803      7795      7798      7801      7804
      7796      7795      7798      7799      7796      7795      7798      7800
      7796      7795      7798      7801      7797      7795      7798      7799
      7797      7795      7798      7800      7797      7795      7798      7801
      7798      7801      7804      7805      7798      7801      7804      7806
      7798      7801      7804      7807      7799      7798      7801      7802
      7799      7798      7801      7803      7799      7798      7801      7804
      7800      7798      7801      7802      7800      7798      7801      7803
      7800      7798      7801      7804      7801      7804      7807      7808
      7801      7804      7807      7809      7801      7804      7807      7810
      7802      7801      7804      7805      7802      7801      7804      7806
      7802      7801      7804      7807      7803      7801      7804      7805
      7803      7801      7804      7806      7803      7801      7804      7807
      7804      7807      7810      7811      7804      7807      7810      7812
      7804      7807      7810      7813      7805      7804      7807      7808
      7805      7804      7807      7809      7805      7804      7807      7810
      7806      7804      7807      7808      7806      7804      7807      7809
      7806      7804      7807      7810      7807      7810      7813      7814
      7807      7810      7813      7815      7807      7810      7813      7816
      7808      7807      7810      7811      7808      7807      7810      7812
      7808      7807      7810      7813      7809      7807      7810      7811
      7809      7807      7810      7812      7809      7807      7810      7813
      7810      7813      7816      7817      7810      7813      7816      7818
      7810      7813      7816      7819      7811      7810      7813      7814
      7811      7810      7813      7815      7811      7810      7813      7816
      7812      7810      7813      7814      7812      7810      7813      7815
      7812      7810      7813      7816      7813      7816      7819      7820
      7813      7816      7819      7821      7813      7816      7819      7822
      7814      7813      7816      7817      7814      7813      7816      7818
      7814      7813      7816      7819      7815      7813      7816      7817
      7815      7813      7816      7818      7815      7813      7816      7819
      7816      7819      7822      7823      7816      7819      7822      7824
      7816      7819      7822      7825      7817      7816      7819      7820
      7817      7816      7819      7821      7817      7816      7819      7822
      7818      7816      7819      7820      7818      7816      7819      7821
      7818      7816      7819      7822      7819      7822      7825      7826
      7819      7822      7825      7827      7819      7822      7825      7828
      7820      7819      7822      7823      7820      7819      7822      7824
      7820      7819      7822      7825      7821      7819      7822      7823
      7821      7819      7822      7824      7821      7819      7822      7825
      7822      7825      7828      7829      7822      7825      7828      7830
      7822      7825      7828      7831      7823      7822      7825      7826
      7823      7822      7825      7827      7823      7822      7825      7828
      7824      7822      7825      7826      7824      7822      7825      7827
      7824      7822      7825      7828      7826      7825      7828      7829
      7826      7825      7828      7830      7826      7825      7828      7831
      7827      7825      7828      7829      7827      7825      7828      7830
      7827      7825      7828      7831      7832      7833      7848      7849
      7832      7833      7848      7850      7832      7833      7848      7854
      7833      7832      7836      7837      7833      7832      7836      7838
      7833      7832      7836      7839      7833      7832      7840      7841
      7833      7832      7840      7842      7833      7832      7840      7843
      7833      7832      7844      7845      7833      7832      7844      7846
      7833      7832      7844      7847      7833      7848      7854      7851
      7834      7833      7832      7836      7834      7833      7832      7840
      7834      7833      7832      7844      7834      7833      7848      7849
      7834      7833      7848      7850      7834      7833      7848      7854
      7835      7833      7832      7836      7835      7833      7832      7840
      7835      7833      7832      7844      7835      7833      7848      7849
      7835      7833      7848      7850      7835      7833      7848      7854
      7836      7832      7833      7848      7836      7832      7840      7841
      7836      7832      7840      7842      7836      7832      7840      7843
      7836      7832      7844      7845      7836      7832      7844      7846
      7836      7832      7844      7847      7837      7836      7832      7840
      7837      7836      7832      7844      7838      7836      7832      7840
      7838      7836      7832      7844      7839      7836      7832      7840
      7839      7836      7832      7844      7840      7832      7833      7848
      7840      7832      7844      7845      7840      7832      7844      7846
      7840      7832      7844      7847      7841      7840      7832      7844
      7842      7840      7832      7844      7843      7840      7832      7844
      7844      7832      7833      7848      7848      7854      7851      7852
      7848      7854      7851      7853      7848      7854      7851      7855
      7849      7848      7854      7851      7850      7848      7854      7851
      7851      7855      7856      7857      7851      7855      7856      7858
      7851      7855      7856      7859      7852      7851      7855      7856
      7853      7851      7855      7856      7854      7851      7855      7856
      7855      7856      7859      7860      7855      7856      7859      7861
      7855      7856      7859      7867      7856      7859      7861      7862
      7856      7859      7867      7868      7856      7859      7867      7869
      7856      7859      7867      7870      7857      7856      7859      7860
      7857      7856      7859      7861      7857      7856      7859      7867
      7858      7856      7859      7860      7858      7856      7859      7861
      7858      7856      7859      7867      7859      7861      7862      7863
      7859      7861      7862      7864      7859      7867      7870      7871
      7860      7859      7861      7862      7860      7859      7867      7868
      7860      7859      7867      7869      7860      7859      7867      7870
      7861      7859      7867      7868      7861      7859      7867      7869
      7861      7859      7867      7870      7861      7862      7864      7865
      7861      7862      7864      7866      7861      7862      7864      7876
      7862      7861      7859      7867      7862      7864      7876      7877
      7862      7864      7876      7878      7862      7864      7876      7879
      7863      7862      7864      7865      7863      7862      7864      7866
      7863      7862      7864      7876      7864      7876      7879      7880
      7864      7876      7879      7881      7864      7876      7879      7882
      7865      7864      7876      7877      7865      7864      7876      7878
      7865      7864      7876      7879      7866      7864      7876      7877
      7866      7864      7876      7878      7866      7864      7876      7879
      7867      7870      7871      7872      7867      7870      7871      7873
      7868      7867      7870      7871      7869      7867      7870      7871
      7870      7871      7873      7874      7870      7871      7873      7875
      7870      7871      7873      7923      7871      7873      7923      7924
      7871      7873      7923      7925      7871      7873      7923      7926
      7872      7871      7873      7874      7872      7871      7873      7875
      7872      7871      7873      7923      7873      7923      7926      7927
      7873      7923      7926      7928      7873      7923      7926      7929
      7874      7873      7923      7924      7874      7873      7923      7925
      7874      7873      7923      7926      7875      7873      7923      7924
      7875      7873      7923      7925      7875      7873      7923      7926
      7876      7879      7882      7883      7876      7879      7882      7884
      7876      7879      7882      7885      7877      7876      7879      7880
      7877      7876      7879      7881      7877      7876      7879      7882
      7878      7876      7879      7880      7878      7876      7879      7881
      7878      7876      7879      7882      7879      7882      7885      7886
      7879      7882      7885      7887      7879      7882      7885      7888
      7880      7879      7882      7883      7880      7879      7882      7884
      7880      7879      7882      7885      7881      7879      7882      7883
      7881      7879      7882      7884      7881      7879      7882      7885
      7882      7885      7888      7889      7882      7885      7888      7890
      7882      7885      7888      7891      7883      7882      7885      7886
      7883      7882      7885      7887      7883      7882      7885      7888
      7884      7882      7885      7886      7884      7882      7885      7887
      7884      7882      7885      7888      7885      7888      7891      7892
      7885      7888      7891      7893      7885      7888      7891      7894
      7886      7885      7888      7889      7886      7885      7888      7890
      7886      7885      7888      7891      7887      7885      7888      7889
      7887      7885      7888      7890      7887      7885      7888      7891
      7888      7891      7894      7895      7888      7891      7894      7896
      7889      7888      7891      7892      7889      7888      7891      7893
      7889      7888      7891      7894      7890      7888      7891      7892
      7890      7888      7891      7893      7890      7888      7891      7894
      7891      7894      7896      7897      7891      7894      7896      7898
      7892      7891      7894      7895      7892      7891      7894      7896
      7893      7891      7894      7895      7893      7891      7894      7896
      7894      7896      7898      7899      7894      7896      7898      7900
      7894      7896      7898      7901      7895      7894      7896      7897
      7895      7894      7896      7898      7896      7898      7901      7902
      7896      7898      7901      7903      7896      7898      7901      7904
      7897      7896      7898      7899      7897      7896      7898      7900
      7897      7896      7898      7901      7898      7901      7904      7905
      7898      7901      7904      7906      7898      7901      7904      7907
      7899      7898      7901      7902      7899      7898      7901      7903
      7899      7898      7901      7904      7900      7898      7901      7902
      7900      7898      7901      7903      7900      7898      7901      7904
      7901      7904      7907      7908      7901      7904      7907      7909
      7901      7904      7907      7910      7902      7901      7904      7905
      7902      7901      7904      7906      7902      7901      7904      7907
      7903      7901      7904      7905      7903      7901      7904      7906
      7903      7901      7904      7907      7904      7907      7910      7911
      7904      7907      7910      7912      7904      7907      7910      7913
      7905      7904      7907      7908      7905      7904      7907      7909
      7905      7904      7907      7910      7906      7904      7907      7908
      7906      7904      7907      7909      7906      7904      7907      7910
      7907      7910      7913      7914      7907      7910      7913      7915
      7907      7910      7913      7916      7908      7907      7910      7911
      7908      7907      7910      7912      7908      7907      7910      7913
      7909      7907      7910      7911      7909      7907      7910      7912
      7909      7907      7910      7913      7910      7913      7916      7917
      7910      7913      7916      7918      7910      7913      7916      7919
      7911      7910      7913      7914      7911      7910      7913      7915
      7911      7910      7913      7916      7912      7910      7913      7914
      7912      7910      7913      7915      7912      7910      7913      7916
      7913      7916      7919      7920      7913      7916      7919      7921
      7913      7916      7919      7922      7914      7913      7916      7917
      7914      7913      7916      7918      7914      7913      7916      7919
      7915      7913      7916      7917      7915      7913      7916      7918
      7915      7913      7916      7919      7917      7916      7919      7920
      7917      7916      7919      7921      7917      7916      7919      7922
      7918      7916      7919      7920      7918      7916      7919      7921
      7918      7916      7919      7922      7923      7926      7929      7930
      7923      7926      7929      7931      7923      7926      7929      7932
      7924      7923      7926      7927      7924      7923      7926      7928
      7924      7923      7926      7929      7925      7923      7926      7927
      7925      7923      7926      7928      7925      7923      7926      7929
      7926      7929      7932      7933      7926      7929      7932      7934
      7926      7929      7932      7935      7927      7926      7929      7930
      7927      7926      7929      7931      7927      7926      7929      7932
      7928      7926      7929      7930      7928      7926      7929      7931
      7928      7926      7929      7932      7929      7932      7935      7936
      7929      7932      7935      7937      7929      7932      7935      7938
      7930      7929      7932      7933      7930      7929      7932      7934
      7930      7929      7932      7935      7931      7929      7932      7933
      7931      7929      7932      7934      7931      7929      7932      7935
      7932      7935      7938      7939      7932      7935      7938      7940
      7932      7935      7938      7941      7933      7932      7935      7936
      7933      7932      7935      7937      7933      7932      7935      7938
      7934      7932      7935      7936      7934      7932      7935      7937
      7934      7932      7935      7938      7935      7938      7941      7942
      7935      7938      7941      7943      7935      7938      7941      7944
      7936      7935      7938      7939      7936      7935      7938      7940
      7936      7935      7938      7941      7937      7935      7938      7939
      7937      7935      7938      7940      7937      7935      7938      7941
      7938      7941      7944      7945      7938      7941      7944      7946
      7938      7941      7944      7947      7939      7938      7941      7942
      7939      7938      7941      7943      7939      7938      7941      7944
      7940      7938      7941      7942      7940      7938      7941      7943
      7940      7938      7941      7944      7941      7944      7947      7948
      7941      7944      7947      7949      7941      7944      7947      7950
      7942      7941      7944      7945      7942      7941      7944      7946
      7942      7941      7944      7947      7943      7941      7944      7945
      7943      7941      7944      7946      7943      7941      7944      7947
      7944      7947      7950      7951      7944      7947      7950      7952
      7944      7947      7950      7953      7945      7944      7947      7948
      7945      7944      7947      7949      7945      7944      7947      7950
      7946      7944      7947      7948      7946      7944      7947      7949
      7946      7944      7947      7950      7947      7950      7953      7954
      7947      7950      7953      7955      7947      7950      7953      7956
      7948      7947      7950      7951      7948      7947      7950      7952
      7948      7947      7950      7953      7949      7947      7950      7951
      7949      7947      7950      7952      7949      7947      7950      7953
      7950      7953      7956      7957      7950      7953      7956      7958
      7950      7953      7956      7959      7951      7950      7953      7954
      7951      7950      7953      7955      7951      7950      7953      7956
      7952      7950      7953      7954      7952      7950      7953      7955
      7952      7950      7953      7956      7953      7956      7959      7960
      7953      7956      7959      7961      7953      7956      7959      7962
      7954      7953      7956      7957      7954      7953      7956      7958
      7954      7953      7956      7959      7955      7953      7956      7957
      7955      7953      7956      7958      7955      7953      7956      7959
      7956      7959      7962      7963      7956      7959      7962      7964
      7956      7959      7962      7965      7957      7956      7959      7960
      7957      7956      7959      7961      7957      7956      7959      7962
      7958      7956      7959      7960      7958      7956      7959      7961
      7958      7956      7959      7962      7960      7959      7962      7963
      7960      7959      7962      7964      7960      7959      7962      7965
      7961      7959      7962      7963      7961      7959      7962      7964
      7961      7959      7962      7965      7966      7967      7982      7983
      7966      7967      7982      7984      7966      7967      7982      7988
      7967      7966      7970      7971      7967      7966      7970      7972
      7967      7966      7970      7973      7967      7966      7974      7975
      7967      7966      7974      7976      7967      7966      7974      7977
      7967      7966      7978      7979      7967      7966      7978      7980
      7967      7966      7978      7981      7967      7982      7988      7985
      7968      7967      7966      7970      7968      7967      7966      7974
      7968      7967      7966      7978      7968      7967      7982      7983
      7968      7967      7982      7984      7968      7967      7982      7988
      7969      7967      7966      7970      7969      7967      7966      7974
      7969      7967      7966      7978      7969      7967      7982      7983
      7969      7967      7982      7984      7969      7967      7982      7988
      7970      7966      7967      7982      7970      7966      7974      7975
      7970      7966      7974      7976      7970      7966      7974      7977
      7970      7966      7978      7979      7970      7966      7978      7980
      7970      7966      7978      7981      7971      7970      7966      7974
      7971      7970      7966      7978      7972      7970      7966      7974
      7972      7970      7966      7978      7973      7970      7966      7974
      7973      7970      7966      7978      7974      7966      7967      7982
      7974      7966      7978      7979      7974      7966      7978      7980
      7974      7966      7978      7981      7975      7974      7966      7978
      7976      7974      7966      7978      7977      7974      7966      7978
      7978      7966      7967      7982      7982      7988      7985      7986
      7982      7988      7985      7987      7982      7988      7985      7989
      7983      7982      7988      7985      7984      7982      7988      7985
      7985      7989      7990      7991      7985      7989      7990      7992
      7985      7989      7990      7993      7986      7985      7989      7990
      7987      7985      7989      7990      7988      7985      7989      7990
      7989      7990      7993      7994      7989      7990      7993      7995
      7989      7990      7993      8001      7990      7993      7995      7996
      7990      7993      8001      8002      7990      7993      8001      8003
      7990      7993      8001      8004      7991      7990      7993      7994
      7991      7990      7993      7995      7991      7990      7993      8001
      7992      7990      7993      7994      7992      7990      7993      7995
      7992      7990      7993      8001      7993      7995      7996      7997
      7993      7995      7996      7998      7993      8001      8004      8005
      7994      7993      7995      7996      7994      7993      8001      8002
      7994      7993      8001      8003      7994      7993      8001      8004
      7995      7993      8001      8002      7995      7993      8001      8003
      7995      7993      8001      8004      7995      7996      7998      7999
      7995      7996      7998      8000      7995      7996      7998      8010
      7996      7995      7993      8001      7996      7998      8010      8011
      7996      7998      8010      8012      7996      7998      8010      8013
      7997      7996      7998      7999      7997      7996      7998      8000
      7997      7996      7998      8010      7998      8010      8013      8014
      7998      8010      8013      8015      7998      8010      8013      8016
      7999      7998      8010      8011      7999      7998      8010      8012
      7999      7998      8010      8013      8000      7998      8010      8011
      8000      7998      8010      8012      8000      7998      8010      8013
      8001      8004      8005      8006      8001      8004      8005      8007
      8002      8001      8004      8005      8003      8001      8004      8005
      8004      8005      8007      8008      8004      8005      8007      8009
      8004      8005      8007      8057      8005      8007      8057      8058
      8005      8007      8057      8059      8005      8007      8057      8060
      8006      8005      8007      8008      8006      8005      8007      8009
      8006      8005      8007      8057      8007      8057      8060      8061
      8007      8057      8060      8062      8007      8057      8060      8063
      8008      8007      8057      8058      8008      8007      8057      8059
      8008      8007      8057      8060      8009      8007      8057      8058
      8009      8007      8057      8059      8009      8007      8057      8060
      8010      8013      8016      8017      8010      8013      8016      8018
      8010      8013      8016      8019      8011      8010      8013      8014
      8011      8010      8013      8015      8011      8010      8013      8016
      8012      8010      8013      8014      8012      8010      8013      8015
      8012      8010      8013      8016      8013      8016      8019      8020
      8013      8016      8019      8021      8013      8016      8019      8022
      8014      8013      8016      8017      8014      8013      8016      8018
      8014      8013      8016      8019      8015      8013      8016      8017
      8015      8013      8016      8018      8015      8013      8016      8019
      8016      8019      8022      8023      8016      8019      8022      8024
      8016      8019      8022      8025      8017      8016      8019      8020
      8017      8016      8019      8021      8017      8016      8019      8022
      8018      8016      8019      8020      8018      8016      8019      8021
      8018      8016      8019      8022      8019      8022      8025      8026
      8019      8022      8025      8027      8019      8022      8025      8028
      8020      8019      8022      8023      8020      8019      8022      8024
      8020      8019      8022      8025      8021      8019      8022      8023
      8021      8019      8022      8024      8021      8019      8022      8025
      8022      8025      8028      8029      8022      8025      8028      8030
      8023      8022      8025      8026      8023      8022      8025      8027
      8023      8022      8025      8028      8024      8022      8025      8026
      8024      8022      8025      8027      8024      8022      8025      8028
      8025      8028      8030      8031      8025      8028      8030      8032
      8026      8025      8028      8029      8026      8025      8028      8030
      8027      8025      8028      8029      8027      8025      8028      8030
      8028      8030      8032      8033      8028      8030      8032      8034
      8028      8030      8032      8035      8029      8028      8030      8031
      8029      8028      8030      8032      8030      8032      8035      8036
      8030      8032      8035      8037      8030      8032      8035      8038
      8031      8030      8032      8033      8031      8030      8032      8034
      8031      8030      8032      8035      8032      8035      8038      8039
      8032      8035      8038      8040      8032      8035      8038      8041
      8033      8032      8035      8036      8033      8032      8035      8037
      8033      8032      8035      8038      8034      8032      8035      8036
      8034      8032      8035      8037      8034      8032      8035      8038
      8035      8038      8041      8042      8035      8038      8041      8043
      8035      8038      8041      8044      8036      8035      8038      8039
      8036      8035      8038      8040      8036      8035      8038      8041
      8037      8035      8038      8039      8037      8035      8038      8040
      8037      8035      8038      8041      8038      8041      8044      8045
      8038      8041      8044      8046      8038      8041      8044      8047
      8039      8038      8041      8042      8039      8038      8041      8043
      8039      8038      8041      8044      8040      8038      8041      8042
      8040      8038      8041      8043      8040      8038      8041      8044
      8041      8044      8047      8048      8041      8044      8047      8049
      8041      8044      8047      8050      8042      8041      8044      8045
      8042      8041      8044      8046      8042      8041      8044      8047
      8043      8041      8044      8045      8043      8041      8044      8046
      8043      8041      8044      8047      8044      8047      8050      8051
      8044      8047      8050      8052      8044      8047      8050      8053
      8045      8044      8047      8048      8045      8044      8047      8049
      8045      8044      8047      8050      8046      8044      8047      8048
      8046      8044      8047      8049      8046      8044      8047      8050
      8047      8050      8053      8054      8047      8050      8053      8055
      8047      8050      8053      8056      8048      8047      8050      8051
      8048      8047      8050      8052      8048      8047      8050      8053
      8049      8047      8050      8051      8049      8047      8050      8052
      8049      8047      8050      8053      8051      8050      8053      8054
      8051      8050      8053      8055      8051      8050      8053      8056
      8052      8050      8053      8054      8052      8050      8053      8055
      8052      8050      8053      8056      8057      8060      8063      8064
      8057      8060      8063      8065      8057      8060      8063      8066
      8058      8057      8060      8061      8058      8057      8060      8062
      8058      8057      8060      8063      8059      8057      8060      8061
      8059      8057      8060      8062      8059      8057      8060      8063
      8060      8063      8066      8067      8060      8063      8066      8068
      8060      8063      8066      8069      8061      8060      8063      8064
      8061      8060      8063      8065      8061      8060      8063      8066
      8062      8060      8063      8064      8062      8060      8063      8065
      8062      8060      8063      8066      8063      8066      8069      8070
      8063      8066      8069      8071      8063      8066      8069      8072
      8064      8063      8066      8067      8064      8063      8066      8068
      8064      8063      8066      8069      8065      8063      8066      8067
      8065      8063      8066      8068      8065      8063      8066      8069
      8066      8069      8072      8073      8066      8069      8072      8074
      8066      8069      8072      8075      8067      8066      8069      8070
      8067      8066      8069      8071      8067      8066      8069      8072
      8068      8066      8069      8070      8068      8066      8069      8071
      8068      8066      8069      8072      8069      8072      8075      8076
      8069      8072      8075      8077      8069      8072      8075      8078
      8070      8069      8072      8073      8070      8069      8072      8074
      8070      8069      8072      8075      8071      8069      8072      8073
      8071      8069      8072      8074      8071      8069      8072      8075
      8072      8075      8078      8079      8072      8075      8078      8080
      8072      8075      8078      8081      8073      8072      8075      8076
      8073      8072      8075      8077      8073      8072      8075      8078
      8074      8072      8075      8076      8074      8072      8075      8077
      8074      8072      8075      8078      8075      8078      8081      8082
      8075      8078      8081      8083      8075      8078      8081      8084
      8076      8075      8078      8079      8076      8075      8078      8080
      8076      8075      8078      8081      8077      8075      8078      8079
      8077      8075      8078      8080      8077      8075      8078      8081
      8078      8081      8084      8085      8078      8081      8084      8086
      8078      8081      8084      8087      8079      8078      8081      8082
      8079      8078      8081      8083      8079      8078      8081      8084
      8080      8078      8081      8082      8080      8078      8081      8083
      8080      8078      8081      8084      8081      8084      8087      8088
      8081      8084      8087      8089      8081      8084      8087      8090
      8082      8081      8084      8085      8082      8081      8084      8086
      8082      8081      8084      8087      8083      8081      8084      8085
      8083      8081      8084      8086      8083      8081      8084      8087
      8084      8087      8090      8091      8084      8087      8090      8092
      8084      8087      8090      8093      8085      8084      8087      8088
      8085      8084      8087      8089      8085      8084      8087      8090
      8086      8084      8087      8088      8086      8084      8087      8089
      8086      8084      8087      8090      8087      8090      8093      8094
      8087      8090      8093      8095      8087      8090      8093      8096
      8088      8087      8090      8091      8088      8087      8090      8092
      8088      8087      8090      8093      8089      8087      8090      8091
      8089      8087      8090      8092      8089      8087      8090      8093
      8090      8093      8096      8097      8090      8093      8096      8098
      8090      8093      8096      8099      8091      8090      8093      8094
      8091      8090      8093      8095      8091      8090      8093      8096
      8092      8090      8093      8094      8092      8090      8093      8095
      8092      8090      8093      8096      8094      8093      8096      8097
      8094      8093      8096      8098      8094      8093      8096      8099
      8095      8093      8096      8097      8095      8093      8096      8098
      8095      8093      8096      8099      8100      8101      8116      8117
      8100      8101      8116      8118      8100      8101      8116      8122
      8101      8100      8104      8105      8101      8100      8104      8106
      8101      8100      8104      8107      8101      8100      8108      8109
      8101      8100      8108      8110      8101      8100      8108      8111
      8101      8100      8112      8113      8101      8100      8112      8114
      8101      8100      8112      8115      8101      8116      8122      8119
      8102      8101      8100      8104      8102      8101      8100      8108
      8102      8101      8100      8112      8102      8101      8116      8117
      8102      8101      8116      8118      8102      8101      8116      8122
      8103      8101      8100      8104      8103      8101      8100      8108
      8103      8101      8100      8112      8103      8101      8116      8117
      8103      8101      8116      8118      8103      8101      8116      8122
      8104      8100      8101      8116      8104      8100      8108      8109
      8104      8100      8108      8110      8104      8100      8108      8111
      8104      8100      8112      8113      8104      8100      8112      8114
      8104      8100      8112      8115      8105      8104      8100      8108
      8105      8104      8100      8112      8106      8104      8100      8108
      8106      8104      8100      8112      8107      8104      8100      8108
      8107      8104      8100      8112      8108      8100      8101      8116
      8108      8100      8112      8113      8108      8100      8112      8114
      8108      8100      8112      8115      8109      8108      8100      8112
      8110      8108      8100      8112      8111      8108      8100      8112
      8112      8100      8101      8116      8116      8122      8119      8120
      8116      8122      8119      8121      8116      8122      8119      8123
      8117      8116      8122      8119      8118      8116      8122      8119
      8119      8123      8124      8125      8119      8123      8124      8126
      8119      8123      8124      8127      8120      8119      8123      8124
      8121      8119      8123      8124      8122      8119      8123      8124
      8123      8124      8127      8128      8123      8124      8127      8129
      8123      8124      8127      8135      8124      8127      8129      8130
      8124      8127      8135      8136      8124      8127      8135      8137
      8124      8127      8135      8138      8125      8124      8127      8128
      8125      8124      8127      8129      8125      8124      8127      8135
      8126      8124      8127      8128      8126      8124      8127      8129
      8126      8124      8127      8135      8127      8129      8130      8131
      8127      8129      8130      8132      8127      8135      8138      8139
      8128      8127      8129      8130      8128      8127      8135      8136
      8128      8127      8135      8137      8128      8127      8135      8138
      8129      8127      8135      8136      8129      8127      8135      8137
      8129      8127      8135      8138      8129      8130      8132      8133
      8129      8130      8132      8134      8129      8130      8132      8144
      8130      8129      8127      8135      8130      8132      8144      8145
      8130      8132      8144      8146      8130      8132      8144      8147
      8131      8130      8132      8133      8131      8130      8132      8134
      8131      8130      8132      8144      8132      8144      8147      8148
      8132      8144      8147      8149      8132      8144      8147      8150
      8133      8132      8144      8145      8133      8132      8144      8146
      8133      8132      8144      8147      8134      8132      8144      8145
      8134      8132      8144      8146      8134      8132      8144      8147
      8135      8138      8139      8140      8135      8138      8139      8141
      8136      8135      8138      8139      8137      8135      8138      8139
      8138      8139      8141      8142      8138      8139      8141      8143
      8138      8139      8141      8191      8139      8141      8191      8192
      8139      8141      8191      8193      8139      8141      8191      8194
      8140      8139      8141      8142      8140      8139      8141      8143
      8140      8139      8141      8191      8141      8191      8194      8195
      8141      8191      8194      8196      8141      8191      8194      8197
      8142      8141      8191      8192      8142      8141      8191      8193
      8142      8141      8191      8194      8143      8141      8191      8192
      8143      8141      8191      8193      8143      8141      8191      8194
      8144      8147      8150      8151      8144      8147      8150      8152
      8144      8147      8150      8153      8145      8144      8147      8148
      8145      8144      8147      8149      8145      8144      8147      8150
      8146      8144      8147      8148      8146      8144      8147      8149
      8146      8144      8147      8150      8147      8150      8153      8154
      8147      8150      8153      8155      8147      8150      8153      8156
      8148      8147      8150      8151      8148      8147      8150      8152
      8148      8147      8150      8153      8149      8147      8150      8151
      8149      8147      8150      8152      8149      8147      8150      8153
      8150      8153      8156      8157      8150      8153      8156      8158
      8150      8153      8156      8159      8151      8150      8153      8154
      8151      8150      8153      8155      8151      8150      8153      8156
      8152      8150      8153      8154      8152      8150      8153      8155
      8152      8150      8153      8156      8153      8156      8159      8160
      8153      8156      8159      8161      8153      8156      8159      8162
      8154      8153      8156      8157      8154      8153      8156      8158
      8154      8153      8156      8159      8155      8153      8156      8157
      8155      8153      8156      8158      8155      8153      8156      8159
      8156      8159      8162      8163      8156      8159      8162      8164
      8157      8156      8159      8160      8157      8156      8159      8161
      8157      8156      8159      8162      8158      8156      8159      8160
      8158      8156      8159      8161      8158      8156      8159      8162
      8159      8162      8164      8165      8159      8162      8164      8166
      8160      8159      8162      8163      8160      8159      8162      8164
      8161      8159      8162      8163      8161      8159      8162      8164
      8162      8164      8166      8167      8162      8164      8166      8168
      8162      8164      8166      8169      8163      8162      8164      8165
      8163      8162      8164      8166      8164      8166      8169      8170
      8164      8166      8169      8171      8164      8166      8169      8172
      8165      8164      8166      8167      8165      8164      8166      8168
      8165      8164      8166      8169      8166      8169      8172      8173
      8166      8169      8172      8174      8166      8169      8172      8175
      8167      8166      8169      8170      8167      8166      8169      8171
      8167      8166      8169      8172      8168      8166      8169      8170
      8168      8166      8169      8171      8168      8166      8169      8172
      8169      8172      8175      8176      8169      8172      8175      8177
      8169      8172      8175      8178      8170      8169      8172      8173
      8170      8169      8172      8174      8170      8169      8172      8175
      8171      8169      8172      8173      8171      8169      8172      8174
      8171      8169      8172      8175      8172      8175      8178      8179
      8172      8175      8178      8180      8172      8175      8178      8181
      8173      8172      8175      8176      8173      8172      8175      8177
      8173      8172      8175      8178      8174      8172      8175      8176
      8174      8172      8175      8177      8174      8172      8175      8178
      8175      8178      8181      8182      8175      8178      8181      8183
      8175      8178      8181      8184      8176      8175      8178      8179
      8176      8175      8178      8180      8176      8175      8178      8181
      8177      8175      8178      8179      8177      8175      8178      8180
      8177      8175      8178      8181      8178      8181      8184      8185
      8178      8181      8184      8186      8178      8181      8184      8187
      8179      8178      8181      8182      8179      8178      8181      8183
      8179      8178      8181      8184      8180      8178      8181      8182
      8180      8178      8181      8183      8180      8178      8181      8184
      8181      8184      8187      8188      8181      8184      8187      8189
      8181      8184      8187      8190      8182      8181      8184      8185
      8182      8181      8184      8186      8182      8181      8184      8187
      8183      8181      8184      8185      8183      8181      8184      8186
      8183      8181      8184      8187      8185      8184      8187      8188
      8185      8184      8187      8189      8185      8184      8187      8190
      8186      8184      8187      8188      8186      8184      8187      8189
      8186      8184      8187      8190      8191      8194      8197      8198
      8191      8194      8197      8199      8191      8194      8197      8200
      8192      8191      8194      8195      8192      8191      8194      8196
      8192      8191      8194      8197      8193      8191      8194      8195
      8193      8191      8194      8196      8193      8191      8194      8197
      8194      8197      8200      8201      8194      8197      8200      8202
      8194      8197      8200      8203      8195      8194      8197      8198
      8195      8194      8197      8199      8195      8194      8197      8200
      8196      8194      8197      8198      8196      8194      8197      8199
      8196      8194      8197      8200      8197      8200      8203      8204
      8197      8200      8203      8205      8197      8200      8203      8206
      8198      8197      8200      8201      8198      8197      8200      8202
      8198      8197      8200      8203      8199      8197      8200      8201
      8199      8197      8200      8202      8199      8197      8200      8203
      8200      8203      8206      8207      8200      8203      8206      8208
      8200      8203      8206      8209      8201      8200      8203      8204
      8201      8200      8203      8205      8201      8200      8203      8206
      8202      8200      8203      8204      8202      8200      8203      8205
      8202      8200      8203      8206      8203      8206      8209      8210
      8203      8206      8209      8211      8203      8206      8209      8212
      8204      8203      8206      8207      8204      8203      8206      8208
      8204      8203      8206      8209      8205      8203      8206      8207
      8205      8203      8206      8208      8205      8203      8206      8209
      8206      8209      8212      8213      8206      8209      8212      8214
      8206      8209      8212      8215      8207      8206      8209      8210
      8207      8206      8209      8211      8207      8206      8209      8212
      8208      8206      8209      8210      8208      8206      8209      8211
      8208      8206      8209      8212      8209      8212      8215      8216
      8209      8212      8215      8217      8209      8212      8215      8218
      8210      8209      8212      8213      8210      8209      8212      8214
      8210      8209      8212      8215      8211      8209      8212      8213
      8211      8209      8212      8214      8211      8209      8212      8215
      8212      8215      8218      8219      8212      8215      8218      8220
      8212      8215      8218      8221      8213      8212      8215      8216
      8213      8212      8215      8217      8213      8212      8215      8218
      8214      8212      8215      8216      8214      8212      8215      8217
      8214      8212      8215      8218      8215      8218      8221      8222
      8215      8218      8221      8223      8215      8218      8221      8224
      8216      8215      8218      8219      8216      8215      8218      8220
      8216      8215      8218      8221      8217      8215      8218      8219
      8217      8215      8218      8220      8217      8215      8218      8221
      8218      8221      8224      8225      8218      8221      8224      8226
      8218      8221      8224      8227      8219      8218      8221      8222
      8219      8218      8221      8223      8219      8218      8221      8224
      8220      8218      8221      8222      8220      8218      8221      8223
      8220      8218      8221      8224      8221      8224      8227      8228
      8221      8224      8227      8229      8221      8224      8227      8230
      8222      8221      8224      8225      8222      8221      8224      8226
      8222      8221      8224      8227      8223      8221      8224      8225
      8223      8221      8224      8226      8223      8221      8224      8227
      8224      8227      8230      8231      8224      8227      8230      8232
      8224      8227      8230      8233      8225      8224      8227      8228
      8225      8224      8227      8229      8225      8224      8227      8230
      8226      8224      8227      8228      8226      8224      8227      8229
      8226      8224      8227      8230      8228      8227      8230      8231
      8228      8227      8230      8232      8228      8227      8230      8233
      8229      8227      8230      8231      8229      8227      8230      8232
      8229      8227      8230      8233      8234      8235      8250      8251
      8234      8235      8250      8252      8234      8235      8250      8256
      8235      8234      8238      8239      8235      8234      8238      8240
      8235      8234      8238      8241      8235      8234      8242      8243
      8235      8234      8242      8244      8235      8234      8242      8245
      8235      8234      8246      8247      8235      8234      8246      8248
      8235      8234      8246      8249      8235      8250      8256      8253
      8236      8235      8234      8238      8236      8235      8234      8242
      8236      8235      8234      8246      8236      8235      8250      8251
      8236      8235      8250      8252      8236      8235      8250      8256
      8237      8235      8234      8238      8237      8235      8234      8242
      8237      8235      8234      8246      8237      8235      8250      8251
      8237      8235      8250      8252      8237      8235      8250      8256
      8238      8234      8235      8250      8238      8234      8242      8243
      8238      8234      8242      8244      8238      8234      8242      8245
      8238      8234      8246      8247      8238      8234      8246      8248
      8238      8234      8246      8249      8239      8238      8234      8242
      8239      8238      8234      8246      8240      8238      8234      8242
      8240      8238      8234      8246      8241      8238      8234      8242
      8241      8238      8234      8246      8242      8234      8235      8250
      8242      8234      8246      8247      8242      8234      8246      8248
      8242      8234      8246      8249      8243      8242      8234      8246
      8244      8242      8234      8246      8245      8242      8234      8246
      8246      8234      8235      8250      8250      8256      8253      8254
      8250      8256      8253      8255      8250      8256      8253      8257
      8251      8250      8256      8253      8252      8250      8256      8253
      8253      8257      8258      8259      8253      8257      8258      8260
      8253      8257      8258      8261      8254      8253      8257      8258
      8255      8253      8257      8258      8256      8253      8257      8258
      8257      8258      8261      8262      8257      8258      8261      8263
      8257      8258      8261      8269      8258      8261      8263      8264
      8258      8261      8269      8270      8258      8261      8269      8271
      8258      8261      8269      8272      8259      8258      8261      8262
      8259      8258      8261      8263      8259      8258      8261      8269
      8260      8258      8261      8262      8260      8258      8261      8263
      8260      8258      8261      8269      8261      8263      8264      8265
      8261      8263      8264      8266      8261      8269      8272      8273
      8262      8261      8263      8264      8262      8261      8269      8270
      8262      8261      8269      8271      8262      8261      8269      8272
      8263      8261      8269      8270      8263      8261      8269      8271
      8263      8261      8269      8272      8263      8264      8266      8267
      8263      8264      8266      8268      8263      8264      8266      8278
      8264      8263      8261      8269      8264      8266      8278      8279
      8264      8266      8278      8280      8264      8266      8278      8281
      8265      8264      8266      8267      8265      8264      8266      8268
      8265      8264      8266      8278      8266      8278      8281      8282
      8266      8278      8281      8283      8266      8278      8281      8284
      8267      8266      8278      8279      8267      8266      8278      8280
      8267      8266      8278      8281      8268      8266      8278      8279
      8268      8266      8278      8280      8268      8266      8278      8281
      8269      8272      8273      8274      8269      8272      8273      8275
      8270      8269      8272      8273      8271      8269      8272      8273
      8272      8273      8275      8276      8272      8273      8275      8277
      8272      8273      8275      8325      8273      8275      8325      8326
      8273      8275      8325      8327      8273      8275      8325      8328
      8274      8273      8275      8276      8274      8273      8275      8277
      8274      8273      8275      8325      8275      8325      8328      8329
      8275      8325      8328      8330      8275      8325      8328      8331
      8276      8275      8325      8326      8276      8275      8325      8327
      8276      8275      8325      8328      8277      8275      8325      8326
      8277      8275      8325      8327      8277      8275      8325      8328
      8278      8281      8284      8285      8278      8281      8284      8286
      8278      8281      8284      8287      8279      8278      8281      8282
      8279      8278      8281      8283      8279      8278      8281      8284
      8280      8278      8281      8282      8280      8278      8281      8283
      8280      8278      8281      8284      8281      8284      8287      8288
      8281      8284      8287      8289      8281      8284      8287      8290
      8282      8281      8284      8285      8282      8281      8284      8286
      8282      8281      8284      8287      8283      8281      8284      8285
      8283      8281      8284      8286      8283      8281      8284      8287
      8284      8287      8290      8291      8284      8287      8290      8292
      8284      8287      8290      8293      8285      8284      8287      8288
      8285      8284      8287      8289      8285      8284      8287      8290
      8286      8284      8287      8288      8286      8284      8287      8289
      8286      8284      8287      8290      8287      8290      8293      8294
      8287      8290      8293      8295      8287      8290      8293      8296
      8288      8287      8290      8291      8288      8287      8290      8292
      8288      8287      8290      8293      8289      8287      8290      8291
      8289      8287      8290      8292      8289      8287      8290      8293
      8290      8293      8296      8297      8290      8293      8296      8298
      8291      8290      8293      8294      8291      8290      8293      8295
      8291      8290      8293      8296      8292      8290      8293      8294
      8292      8290      8293      8295      8292      8290      8293      8296
      8293      8296      8298      8299      8293      8296      8298      8300
      8294      8293      8296      8297      8294      8293      8296      8298
      8295      8293      8296      8297      8295      8293      8296      8298
      8296      8298      8300      8301      8296      8298      8300      8302
      8296      8298      8300      8303      8297      8296      8298      8299
      8297      8296      8298      8300      8298      8300      8303      8304
      8298      8300      8303      8305      8298      8300      8303      8306
      8299      8298      8300      8301      8299      8298      8300      8302
      8299      8298      8300      8303      8300      8303      8306      8307
      8300      8303      8306      8308      8300      8303      8306      8309
      8301      8300      8303      8304      8301      8300      8303      8305
      8301      8300      8303      8306      8302      8300      8303      8304
      8302      8300      8303      8305      8302      8300      8303      8306
      8303      8306      8309      8310      8303      8306      8309      8311
      8303      8306      8309      8312      8304      8303      8306      8307
      8304      8303      8306      8308      8304      8303      8306      8309
      8305      8303      8306      8307      8305      8303      8306      8308
      8305      8303      8306      8309      8306      8309      8312      8313
      8306      8309      8312      8314      8306      8309      8312      8315
      8307      8306      8309      8310      8307      8306      8309      8311
      8307      8306      8309      8312      8308      8306      8309      8310
      8308      8306      8309      8311      8308      8306      8309      8312
      8309      8312      8315      8316      8309      8312      8315      8317
      8309      8312      8315      8318      8310      8309      8312      8313
      8310      8309      8312      8314      8310      8309      8312      8315
      8311      8309      8312      8313      8311      8309      8312      8314
      8311      8309      8312      8315      8312      8315      8318      8319
      8312      8315      8318      8320      8312      8315      8318      8321
      8313      8312      8315      8316      8313      8312      8315      8317
      8313      8312      8315      8318      8314      8312      8315      8316
      8314      8312      8315      8317      8314      8312      8315      8318
      8315      8318      8321      8322      8315      8318      8321      8323
      8315      8318      8321      8324      8316      8315      8318      8319
      8316      8315      8318      8320      8316      8315      8318      8321
      8317      8315      8318      8319      8317      8315      8318      8320
      8317      8315      8318      8321      8319      8318      8321      8322
      8319      8318      8321      8323      8319      8318      8321      8324
      8320      8318      8321      8322      8320      8318      8321      8323
      8320      8318      8321      8324      8325      8328      8331      8332
      8325      8328      8331      8333      8325      8328      8331      8334
      8326      8325      8328      8329      8326      8325      8328      8330
      8326      8325      8328      8331      8327      8325      8328      8329
      8327      8325      8328      8330      8327      8325      8328      8331
      8328      8331      8334      8335      8328      8331      8334      8336
      8328      8331      8334      8337      8329      8328      8331      8332
      8329      8328      8331      8333      8329      8328      8331      8334
      8330      8328      8331      8332      8330      8328      8331      8333
      8330      8328      8331      8334      8331      8334      8337      8338
      8331      8334      8337      8339      8331      8334      8337      8340
      8332      8331      8334      8335      8332      8331      8334      8336
      8332      8331      8334      8337      8333      8331      8334      8335
      8333      8331      8334      8336      8333      8331      8334      8337
      8334      8337      8340      8341      8334      8337      8340      8342
      8334      8337      8340      8343      8335      8334      8337      8338
      8335      8334      8337      8339      8335      8334      8337      8340
      8336      8334      8337      8338      8336      8334      8337      8339
      8336      8334      8337      8340      8337      8340      8343      8344
      8337      8340      8343      8345      8337      8340      8343      8346
      8338      8337      8340      8341      8338      8337      8340      8342
      8338      8337      8340      8343      8339      8337      8340      8341
      8339      8337      8340      8342      8339      8337      8340      8343
      8340      8343      8346      8347      8340      8343      8346      8348
      8340      8343      8346      8349      8341      8340      8343      8344
      8341      8340      8343      8345      8341      8340      8343      8346
      8342      8340      8343      8344      8342      8340      8343      8345
      8342      8340      8343      8346      8343      8346      8349      8350
      8343      8346      8349      8351      8343      8346      8349      8352
      8344      8343      8346      8347      8344      8343      8346      8348
      8344      8343      8346      8349      8345      8343      8346      8347
      8345      8343      8346      8348      8345      8343      8346      8349
      8346      8349      8352      8353      8346      8349      8352      8354
      8346      8349      8352      8355      8347      8346      8349      8350
      8347      8346      8349      8351      8347      8346      8349      8352
      8348      8346      8349      8350      8348      8346      8349      8351
      8348      8346      8349      8352      8349      8352      8355      8356
      8349      8352      8355      8357      8349      8352      8355      8358
      8350      8349      8352      8353      8350      8349      8352      8354
      8350      8349      8352      8355      8351      8349      8352      8353
      8351      8349      8352      8354      8351      8349      8352      8355
      8352      8355      8358      8359      8352      8355      8358      8360
      8352      8355      8358      8361      8353      8352      8355      8356
      8353      8352      8355      8357      8353      8352      8355      8358
      8354      8352      8355      8356      8354      8352      8355      8357
      8354      8352      8355      8358      8355      8358      8361      8362
      8355      8358      8361      8363      8355      8358      8361      8364
      8356      8355      8358      8359      8356      8355      8358      8360
      8356      8355      8358      8361      8357      8355      8358      8359
      8357      8355      8358      8360      8357      8355      8358      8361
      8358      8361      8364      8365      8358      8361      8364      8366
      8358      8361      8364      8367      8359      8358      8361      8362
      8359      8358      8361      8363      8359      8358      8361      8364
      8360      8358      8361      8362      8360      8358      8361      8363
      8360      8358      8361      8364      8362      8361      8364      8365
      8362      8361      8364      8366      8362      8361      8364      8367
      8363      8361      8364      8365      8363      8361      8364      8366
      8363      8361      8364      8367      8368      8372      8374      8375
      8368      8372      8374      8376      8368      8372      8377      8378
      8368      8372      8377      8379      8368      8372      8377      8383
      8369      8368      8372      8373      8369      8368      8372      8374
      8369      8368      8372      8377      8370      8368      8372      8373
      8370      8368      8372      8374      8370      8368      8372      8377
      8371      8368      8372      8373      8371      8368      8372      8374
      8371      8368      8372      8377      8372      8377      8383      8380
      8373      8372      8374      8375      8373      8372      8374      8376
      8373      8372      8377      8378      8373      8372      8377      8379
      8373      8372      8377      8383      8374      8372      8377      8378
      8374      8372      8377      8379      8374      8372      8377      8383
      8375      8374      8372      8377      8376      8374      8372      8377
      8377      8383      8380      8381      8377      8383      8380      8382
      8377      8383      8380      8384      8378      8377      8383      8380
      8379      8377      8383      8380      8380      8384      8385      8386
      8380      8384      8385      8387      8380      8384      8385      8388
      8381      8380      8384      8385      8382      8380      8384      8385
      8383      8380      8384      8385      8384      8385      8388      8389
      8384      8385      8388      8390      8384      8385      8388      8396
      8385      8388      8390      8391      8385      8388      8396      8397
      8385      8388      8396      8398      8385      8388      8396      8399
      8386      8385      8388      8389      8386      8385      8388      8390
      8386      8385      8388      8396      8387      8385      8388      8389
      8387      8385      8388      8390      8387      8385      8388      8396
      8388      8390      8391      8392      8388      8390      8391      8393
      8388      8396      8399      8400      8389      8388      8390      8391
      8389      8388      8396      8397      8389      8388      8396      8398
      8389      8388      8396      8399      8390      8388      8396      8397
      8390      8388      8396      8398      8390      8388      8396      8399
      8390      8391      8393      8394      8390      8391      8393      8395
      8390      8391      8393      8405      8391      8390      8388      8396
      8391      8393      8405      8406      8391      8393      8405      8407
      8391      8393      8405      8408      8392      8391      8393      8394
      8392      8391      8393      8395      8392      8391      8393      8405
      8393      8405      8408      8409      8393      8405      8408      8410
      8393      8405      8408      8411      8394      8393      8405      8406
      8394      8393      8405      8407      8394      8393      8405      8408
      8395      8393      8405      8406      8395      8393      8405      8407
      8395      8393      8405      8408      8396      8399      8400      8401
      8396      8399      8400      8402      8397      8396      8399      8400
      8398      8396      8399      8400      8399      8400      8402      8403
      8399      8400      8402      8404      8399      8400      8402      8452
      8400      8402      8452      8453      8400      8402      8452      8454
      8400      8402      8452      8455      8401      8400      8402      8403
      8401      8400      8402      8404      8401      8400      8402      8452
      8402      8452      8455      8456      8402      8452      8455      8457
      8402      8452      8455      8458      8403      8402      8452      8453
      8403      8402      8452      8454      8403      8402      8452      8455
      8404      8402      8452      8453      8404      8402      8452      8454
      8404      8402      8452      8455      8405      8408      8411      8412
      8405      8408      8411      8413      8405      8408      8411      8414
      8406      8405      8408      8409      8406      8405      8408      8410
      8406      8405      8408      8411      8407      8405      8408      8409
      8407      8405      8408      8410      8407      8405      8408      8411
      8408      8411      8414      8415      8408      8411      8414      8416
      8408      8411      8414      8417      8409      8408      8411      8412
      8409      8408      8411      8413      8409      8408      8411      8414
      8410      8408      8411      8412      8410      8408      8411      8413
      8410      8408      8411      8414      8411      8414      8417      8418
      8411      8414      8417      8419      8411      8414      8417      8420
      8412      8411      8414      8415      8412      8411      8414      8416
      8412      8411      8414      8417      8413      8411      8414      8415
      8413      8411      8414      8416      8413      8411      8414      8417
      8414      8417      8420      8421      8414      8417      8420      8422
      8414      8417      8420      8423      8415      8414      8417      8418
      8415      8414      8417      8419      8415      8414      8417      8420
      8416      8414      8417      8418      8416      8414      8417      8419
      8416      8414      8417      8420      8417      8420      8423      8424
      8417      8420      8423      8425      8418      8417      8420      8421
      8418      8417      8420      8422      8418      8417      8420      8423
      8419      8417      8420      8421      8419      8417      8420      8422
      8419      8417      8420      8423      8420      8423      8425      8426
      8420      8423      8425      8427      8421      8420      8423      8424
      8421      8420      8423      8425      8422      8420      8423      8424
      8422      8420      8423      8425      8423      8425      8427      8428
      8423      8425      8427      8429      8423      8425      8427      8430
      8424      8423      8425      8426      8424      8423      8425      8427
      8425      8427      8430      8431      8425      8427      8430      8432
      8425      8427      8430      8433      8426      8425      8427      8428
      8426      8425      8427      8429      8426      8425      8427      8430
      8427      8430      8433      8434      8427      8430      8433      8435
      8427      8430      8433      8436      8428      8427      8430      8431
      8428      8427      8430      8432      8428      8427      8430      8433
      8429      8427      8430      8431      8429      8427      8430      8432
      8429      8427      8430      8433      8430      8433      8436      8437
      8430      8433      8436      8438      8430      8433      8436      8439
      8431      8430      8433      8434      8431      8430      8433      8435
      8431      8430      8433      8436      8432      8430      8433      8434
      8432      8430      8433      8435      8432      8430      8433      8436
      8433      8436      8439      8440      8433      8436      8439      8441
      8433      8436      8439      8442      8434      8433      8436      8437
      8434      8433      8436      8438      8434      8433      8436      8439
      8435      8433      8436      8437      8435      8433      8436      8438
      8435      8433      8436      8439      8436      8439      8442      8443
      8436      8439      8442      8444      8436      8439      8442      8445
      8437      8436      8439      8440      8437      8436      8439      8441
      8437      8436      8439      8442      8438      8436      8439      8440
      8438      8436      8439      8441      8438      8436      8439      8442
      8439      8442      8445      8446      8439      8442      8445      8447
      8439      8442      8445      8448      8440      8439      8442      8443
      8440      8439      8442      8444      8440      8439      8442      8445
      8441      8439      8442      8443      8441      8439      8442      8444
      8441      8439      8442      8445      8442      8445      8448      8449
      8442      8445      8448      8450      8442      8445      8448      8451
      8443      8442      8445      8446      8443      8442      8445      8447
      8443      8442      8445      8448      8444      8442      8445      8446
      8444      8442      8445      8447      8444      8442      8445      8448
      8446      8445      8448      8449      8446      8445      8448      8450
      8446      8445      8448      8451      8447      8445      8448      8449
      8447      8445      8448      8450      8447      8445      8448      8451
      8452      8455      8458      8459      8452      8455      8458      8460
      8452      8455      8458      8461      8453      8452      8455      8456
      8453      8452      8455      8457      8453      8452      8455      8458
      8454      8452      8455      8456      8454      8452      8455      8457
      8454      8452      8455      8458      8455      8458      8461      8462
      8455      8458      8461      8463      8455      8458      8461      8464
      8456      8455      8458      8459      8456      8455      8458      8460
      8456      8455      8458      8461      8457      8455      8458      8459
      8457      8455      8458      8460      8457      8455      8458      8461
      8458      8461      8464      8465      8458      8461      8464      8466
      8458      8461      8464      8467      8459      8458      8461      8462
      8459      8458      8461      8463      8459      8458      8461      8464
      8460      8458      8461      8462      8460      8458      8461      8463
      8460      8458      8461      8464      8461      8464      8467      8468
      8461      8464      8467      8469      8461      8464      8467      8470
      8462      8461      8464      8465      8462      8461      8464      8466
      8462      8461      8464      8467      8463      8461      8464      8465
      8463      8461      8464      8466      8463      8461      8464      8467
      8464      8467      8470      8471      8464      8467      8470      8472
      8464      8467      8470      8473      8465      8464      8467      8468
      8465      8464      8467      8469      8465      8464      8467      8470
      8466      8464      8467      8468      8466      8464      8467      8469
      8466      8464      8467      8470      8467      8470      8473      8474
      8467      8470      8473      8475      8467      8470      8473      8476
      8468      8467      8470      8471      8468      8467      8470      8472
      8468      8467      8470      8473      8469      8467      8470      8471
      8469      8467      8470      8472      8469      8467      8470      8473
      8470      8473      8476      8477      8470      8473      8476      8478
      8470      8473      8476      8479      8471      8470      8473      8474
      8471      8470      8473      8475      8471      8470      8473      8476
      8472      8470      8473      8474      8472      8470      8473      8475
      8472      8470      8473      8476      8473      8476      8479      8480
      8473      8476      8479      8481      8473      8476      8479      8482
      8474      8473      8476      8477      8474      8473      8476      8478
      8474      8473      8476      8479      8475      8473      8476      8477
      8475      8473      8476      8478      8475      8473      8476      8479
      8476      8479      8482      8483      8476      8479      8482      8484
      8476      8479      8482      8485      8477      8476      8479      8480
      8477      8476      8479      8481      8477      8476      8479      8482
      8478      8476      8479      8480      8478      8476      8479      8481
      8478      8476      8479      8482      8479      8482      8485      8486
      8479      8482      8485      8487      8479      8482      8485      8488
      8480      8479      8482      8483      8480      8479      8482      8484
      8480      8479      8482      8485      8481      8479      8482      8483
      8481      8479      8482      8484      8481      8479      8482      8485
      8482      8485      8488      8489      8482      8485      8488      8490
      8482      8485      8488      8491      8483      8482      8485      8486
      8483      8482      8485      8487      8483      8482      8485      8488
      8484      8482      8485      8486      8484      8482      8485      8487
      8484      8482      8485      8488      8485      8488      8491      8492
      8485      8488      8491      8493      8485      8488      8491      8494
      8486      8485      8488      8489      8486      8485      8488      8490
      8486      8485      8488      8491      8487      8485      8488      8489
      8487      8485      8488      8490      8487      8485      8488      8491
      8489      8488      8491      8492      8489      8488      8491      8493
      8489      8488      8491      8494      8490      8488      8491      8492
      8490      8488      8491      8493      8490      8488      8491      8494
      8495      8499      8501      8502      8495      8499      8501      8503
      8495      8499      8504      8505      8495      8499      8504      8506
      8495      8499      8504      8510      8496      8495      8499      8500
      8496      8495      8499      8501      8496      8495      8499      8504
      8497      8495      8499      8500      8497      8495      8499      8501
      8497      8495      8499      8504      8498      8495      8499      8500
      8498      8495      8499      8501      8498      8495      8499      8504
      8499      8504      8510      8507      8500      8499      8501      8502
      8500      8499      8501      8503      8500      8499      8504      8505
      8500      8499      8504      8506      8500      8499      8504      8510
      8501      8499      8504      8505      8501      8499      8504      8506
      8501      8499      8504      8510      8502      8501      8499      8504
      8503      8501      8499      8504      8504      8510      8507      8508
      8504      8510      8507      8509      8504      8510      8507      8511
      8505      8504      8510      8507      8506      8504      8510      8507
      8507      8511      8512      8513      8507      8511      8512      8514
      8507      8511      8512      8515      8508      8507      8511      8512
      8509      8507      8511      8512      8510      8507      8511      8512
      8511      8512      8515      8516      8511      8512      8515      8517
      8511      8512      8515      8523      8512      8515      8517      8518
      8512      8515      8523      8524      8512      8515      8523      8525
      8512      8515      8523      8526      8513      8512      8515      8516
      8513      8512      8515      8517      8513      8512      8515      8523
      8514      8512      8515      8516      8514      8512      8515      8517
      8514      8512      8515      8523      8515      8517      8518      8519
      8515      8517      8518      8520      8515      8523      8526      8527
      8516      8515      8517      8518      8516      8515      8523      8524
      8516      8515      8523      8525      8516      8515      8523      8526
      8517      8515      8523      8524      8517      8515      8523      8525
      8517      8515      8523      8526      8517      8518      8520      8521
      8517      8518      8520      8522      8517      8518      8520      8532
      8518      8517      8515      8523      8518      8520      8532      8533
      8518      8520      8532      8534      8518      8520      8532      8535
      8519      8518      8520      8521      8519      8518      8520      8522
      8519      8518      8520      8532      8520      8532      8535      8536
      8520      8532      8535      8537      8520      8532      8535      8538
      8521      8520      8532      8533      8521      8520      8532      8534
      8521      8520      8532      8535      8522      8520      8532      8533
      8522      8520      8532      8534      8522      8520      8532      8535
      8523      8526      8527      8528      8523      8526      8527      8529
      8524      8523      8526      8527      8525      8523      8526      8527
      8526      8527      8529      8530      8526      8527      8529      8531
      8526      8527      8529      8579      8527      8529      8579      8580
      8527      8529      8579      8581      8527      8529      8579      8582
      8528      8527      8529      8530      8528      8527      8529      8531
      8528      8527      8529      8579      8529      8579      8582      8583
      8529      8579      8582      8584      8529      8579      8582      8585
      8530      8529      8579      8580      8530      8529      8579      8581
      8530      8529      8579      8582      8531      8529      8579      8580
      8531      8529      8579      8581      8531      8529      8579      8582
      8532      8535      8538      8539      8532      8535      8538      8540
      8532      8535      8538      8541      8533      8532      8535      8536
      8533      8532      8535      8537      8533      8532      8535      8538
      8534      8532      8535      8536      8534      8532      8535      8537
      8534      8532      8535      8538      8535      8538      8541      8542
      8535      8538      8541      8543      8535      8538      8541      8544
      8536      8535      8538      8539      8536      8535      8538      8540
      8536      8535      8538      8541      8537      8535      8538      8539
      8537      8535      8538      8540      8537      8535      8538      8541
      8538      8541      8544      8545      8538      8541      8544      8546
      8538      8541      8544      8547      8539      8538      8541      8542
      8539      8538      8541      8543      8539      8538      8541      8544
      8540      8538      8541      8542      8540      8538      8541      8543
      8540      8538      8541      8544      8541      8544      8547      8548
      8541      8544      8547      8549      8541      8544      8547      8550
      8542      8541      8544      8545      8542      8541      8544      8546
      8542      8541      8544      8547      8543      8541      8544      8545
      8543      8541      8544      8546      8543      8541      8544      8547
      8544      8547      8550      8551      8544      8547      8550      8552
      8545      8544      8547      8548      8545      8544      8547      8549
      8545      8544      8547      8550      8546      8544      8547      8548
      8546      8544      8547      8549      8546      8544      8547      8550
      8547      8550      8552      8553      8547      8550      8552      8554
      8548      8547      8550      8551      8548      8547      8550      8552
      8549      8547      8550      8551      8549      8547      8550      8552
      8550      8552      8554      8555      8550      8552      8554      8556
      8550      8552      8554      8557      8551      8550      8552      8553
      8551      8550      8552      8554      8552      8554      8557      8558
      8552      8554      8557      8559      8552      8554      8557      8560
      8553      8552      8554      8555      8553      8552      8554      8556
      8553      8552      8554      8557      8554      8557      8560      8561
      8554      8557      8560      8562      8554      8557      8560      8563
      8555      8554      8557      8558      8555      8554      8557      8559
      8555      8554      8557      8560      8556      8554      8557      8558
      8556      8554      8557      8559      8556      8554      8557      8560
      8557      8560      8563      8564      8557      8560      8563      8565
      8557      8560      8563      8566      8558      8557      8560      8561
      8558      8557      8560      8562      8558      8557      8560      8563
      8559      8557      8560      8561      8559      8557      8560      8562
      8559      8557      8560      8563      8560      8563      8566      8567
      8560      8563      8566      8568      8560      8563      8566      8569
      8561      8560      8563      8564      8561      8560      8563      8565
      8561      8560      8563      8566      8562      8560      8563      8564
      8562      8560      8563      8565      8562      8560      8563      8566
      8563      8566      8569      8570      8563      8566      8569      8571
      8563      8566      8569      8572      8564      8563      8566      8567
      8564      8563      8566      8568      8564      8563      8566      8569
      8565      8563      8566      8567      8565      8563      8566      8568
      8565      8563      8566      8569      8566      8569      8572      8573
      8566      8569      8572      8574      8566      8569      8572      8575
      8567      8566      8569      8570      8567      8566      8569      8571
      8567      8566      8569      8572      8568      8566      8569      8570
      8568      8566      8569      8571      8568      8566      8569      8572
      8569      8572      8575      8576      8569      8572      8575      8577
      8569      8572      8575      8578      8570      8569      8572      8573
      8570      8569      8572      8574      8570      8569      8572      8575
      8571      8569      8572      8573      8571      8569      8572      8574
      8571      8569      8572      8575      8573      8572      8575      8576
      8573      8572      8575      8577      8573      8572      8575      8578
      8574      8572      8575      8576      8574      8572      8575      8577
      8574      8572      8575      8578      8579      8582      8585      8586
      8579      8582      8585      8587      8579      8582      8585      8588
      8580      8579      8582      8583      8580      8579      8582      8584
      8580      8579      8582      8585      8581      8579      8582      8583
      8581      8579      8582      8584      8581      8579      8582      8585
      8582      8585      8588      8589      8582      8585      8588      8590
      8582      8585      8588      8591      8583      8582      8585      8586
      8583      8582      8585      8587      8583      8582      8585      8588
      8584      8582      8585      8586      8584      8582      8585      8587
      8584      8582      8585      8588      8585      8588      8591      8592
      8585      8588      8591      8593      8585      8588      8591      8594
      8586      8585      8588      8589      8586      8585      8588      8590
      8586      8585      8588      8591      8587      8585      8588      8589
      8587      8585      8588      8590      8587      8585      8588      8591
      8588      8591      8594      8595      8588      8591      8594      8596
      8588      8591      8594      8597      8589      8588      8591      8592
      8589      8588      8591      8593      8589      8588      8591      8594
      8590      8588      8591      8592      8590      8588      8591      8593
      8590      8588      8591      8594      8591      8594      8597      8598
      8591      8594      8597      8599      8591      8594      8597      8600
      8592      8591      8594      8595      8592      8591      8594      8596
      8592      8591      8594      8597      8593      8591      8594      8595
      8593      8591      8594      8596      8593      8591      8594      8597
      8594      8597      8600      8601      8594      8597      8600      8602
      8594      8597      8600      8603      8595      8594      8597      8598
      8595      8594      8597      8599      8595      8594      8597      8600
      8596      8594      8597      8598      8596      8594      8597      8599
      8596      8594      8597      8600      8597      8600      8603      8604
      8597      8600      8603      8605      8597      8600      8603      8606
      8598      8597      8600      8601      8598      8597      8600      8602
      8598      8597      8600      8603      8599      8597      8600      8601
      8599      8597      8600      8602      8599      8597      8600      8603
      8600      8603      8606      8607      8600      8603      8606      8608
      8600      8603      8606      8609      8601      8600      8603      8604
      8601      8600      8603      8605      8601      8600      8603      8606
      8602      8600      8603      8604      8602      8600      8603      8605
      8602      8600      8603      8606      8603      8606      8609      8610
      8603      8606      8609      8611      8603      8606      8609      8612
      8604      8603      8606      8607      8604      8603      8606      8608
      8604      8603      8606      8609      8605      8603      8606      8607
      8605      8603      8606      8608      8605      8603      8606      8609
      8606      8609      8612      8613      8606      8609      8612      8614
      8606      8609      8612      8615      8607      8606      8609      8610
      8607      8606      8609      8611      8607      8606      8609      8612
      8608      8606      8609      8610      8608      8606      8609      8611
      8608      8606      8609      8612      8609      8612      8615      8616
      8609      8612      8615      8617      8609      8612      8615      8618
      8610      8609      8612      8613      8610      8609      8612      8614
      8610      8609      8612      8615      8611      8609      8612      8613
      8611      8609      8612      8614      8611      8609      8612      8615
      8612      8615      8618      8619      8612      8615      8618      8620
      8612      8615      8618      8621      8613      8612      8615      8616
      8613      8612      8615      8617      8613      8612      8615      8618
      8614      8612      8615      8616      8614      8612      8615      8617
      8614      8612      8615      8618      8616      8615      8618      8619
      8616      8615      8618      8620      8616      8615      8618      8621
      8617      8615      8618      8619      8617      8615      8618      8620
      8617      8615      8618      8621      8622      8623      8638      8639
      8622      8623      8638      8640      8622      8623      8638      8644
      8623      8622      8626      8627      8623      8622      8626      8628
      8623      8622      8626      8629      8623      8622      8630      8631
      8623      8622      8630      8632      8623      8622      8630      8633
      8623      8622      8634      8635      8623      8622      8634      8636
      8623      8622      8634      8637      8623      8638      8644      8641
      8624      8623      8622      8626      8624      8623      8622      8630
      8624      8623      8622      8634      8624      8623      8638      8639
      8624      8623      8638      8640      8624      8623      8638      8644
      8625      8623      8622      8626      8625      8623      8622      8630
      8625      8623      8622      8634      8625      8623      8638      8639
      8625      8623      8638      8640      8625      8623      8638      8644
      8626      8622      8623      8638      8626      8622      8630      8631
      8626      8622      8630      8632      8626      8622      8630      8633
      8626      8622      8634      8635      8626      8622      8634      8636
      8626      8622      8634      8637      8627      8626      8622      8630
      8627      8626      8622      8634      8628      8626      8622      8630
      8628      8626      8622      8634      8629      8626      8622      8630
      8629      8626      8622      8634      8630      8622      8623      8638
      8630      8622      8634      8635      8630      8622      8634      8636
      8630      8622      8634      8637      8631      8630      8622      8634
      8632      8630      8622      8634      8633      8630      8622      8634
      8634      8622      8623      8638      8638      8644      8641      8642
      8638      8644      8641      8643      8638      8644      8641      8645
      8639      8638      8644      8641      8640      8638      8644      8641
      8641      8645      8646      8647      8641      8645      8646      8648
      8641      8645      8646      8649      8642      8641      8645      8646
      8643      8641      8645      8646      8644      8641      8645      8646
      8645      8646      8649      8650      8645      8646      8649      8651
      8645      8646      8649      8657      8646      8649      8651      8652
      8646      8649      8657      8658      8646      8649      8657      8659
      8646      8649      8657      8660      8647      8646      8649      8650
      8647      8646      8649      8651      8647      8646      8649      8657
      8648      8646      8649      8650      8648      8646      8649      8651
      8648      8646      8649      8657      8649      8651      8652      8653
      8649      8651      8652      8654      8649      8657      8660      8661
      8650      8649      8651      8652      8650      8649      8657      8658
      8650      8649      8657      8659      8650      8649      8657      8660
      8651      8649      8657      8658      8651      8649      8657      8659
      8651      8649      8657      8660      8651      8652      8654      8655
      8651      8652      8654      8656      8651      8652      8654      8666
      8652      8651      8649      8657      8652      8654      8666      8667
      8652      8654      8666      8668      8652      8654      8666      8669
      8653      8652      8654      8655      8653      8652      8654      8656
      8653      8652      8654      8666      8654      8666      8669      8670
      8654      8666      8669      8671      8654      8666      8669      8672
      8655      8654      8666      8667      8655      8654      8666      8668
      8655      8654      8666      8669      8656      8654      8666      8667
      8656      8654      8666      8668      8656      8654      8666      8669
      8657      8660      8661      8662      8657      8660      8661      8663
      8658      8657      8660      8661      8659      8657      8660      8661
      8660      8661      8663      8664      8660      8661      8663      8665
      8660      8661      8663      8713      8661      8663      8713      8714
      8661      8663      8713      8715      8661      8663      8713      8716
      8662      8661      8663      8664      8662      8661      8663      8665
      8662      8661      8663      8713      8663      8713      8716      8717
      8663      8713      8716      8718      8663      8713      8716      8719
      8664      8663      8713      8714      8664      8663      8713      8715
      8664      8663      8713      8716      8665      8663      8713      8714
      8665      8663      8713      8715      8665      8663      8713      8716
      8666      8669      8672      8673      8666      8669      8672      8674
      8666      8669      8672      8675      8667      8666      8669      8670
      8667      8666      8669      8671      8667      8666      8669      8672
      8668      8666      8669      8670      8668      8666      8669      8671
      8668      8666      8669      8672      8669      8672      8675      8676
      8669      8672      8675      8677      8669      8672      8675      8678
      8670      8669      8672      8673      8670      8669      8672      8674
      8670      8669      8672      8675      8671      8669      8672      8673
      8671      8669      8672      8674      8671      8669      8672      8675
      8672      8675      8678      8679      8672      8675      8678      8680
      8672      8675      8678      8681      8673      8672      8675      8676
      8673      8672      8675      8677      8673      8672      8675      8678
      8674      8672      8675      8676      8674      8672      8675      8677
      8674      8672      8675      8678      8675      8678      8681      8682
      8675      8678      8681      8683      8675      8678      8681      8684
      8676      8675      8678      8679      8676      8675      8678      8680
      8676      8675      8678      8681      8677      8675      8678      8679
      8677      8675      8678      8680      8677      8675      8678      8681
      8678      8681      8684      8685      8678      8681      8684      8686
      8679      8678      8681      8682      8679      8678      8681      8683
      8679      8678      8681      8684      8680      8678      8681      8682
      8680      8678      8681      8683      8680      8678      8681      8684
      8681      8684      8686      8687      8681      8684      8686      8688
      8682      8681      8684      8685      8682      8681      8684      8686
      8683      8681      8684      8685      8683      8681      8684      8686
      8684      8686      8688      8689      8684      8686      8688      8690
      8684      8686      8688      8691      8685      8684      8686      8687
      8685      8684      8686      8688      8686      8688      8691      8692
      8686      8688      8691      8693      8686      8688      8691      8694
      8687      8686      8688      8689      8687      8686      8688      8690
      8687      8686      8688      8691      8688      8691      8694      8695
      8688      8691      8694      8696      8688      8691      8694      8697
      8689      8688      8691      8692      8689      8688      8691      8693
      8689      8688      8691      8694      8690      8688      8691      8692
      8690      8688      8691      8693      8690      8688      8691      8694
      8691      8694      8697      8698      8691      8694      8697      8699
      8691      8694      8697      8700      8692      8691      8694      8695
      8692      8691      8694      8696      8692      8691      8694      8697
      8693      8691      8694      8695      8693      8691      8694      8696
      8693      8691      8694      8697      8694      8697      8700      8701
      8694      8697      8700      8702      8694      8697      8700      8703
      8695      8694      8697      8698      8695      8694      8697      8699
      8695      8694      8697      8700      8696      8694      8697      8698
      8696      8694      8697      8699      8696      8694      8697      8700
      8697      8700      8703      8704      8697      8700      8703      8705
      8697      8700      8703      8706      8698      8697      8700      8701
      8698      8697      8700      8702      8698      8697      8700      8703
      8699      8697      8700      8701      8699      8697      8700      8702
      8699      8697      8700      8703      8700      8703      8706      8707
      8700      8703      8706      8708      8700      8703      8706      8709
      8701      8700      8703      8704      8701      8700      8703      8705
      8701      8700      8703      8706      8702      8700      8703      8704
      8702      8700      8703      8705      8702      8700      8703      8706
      8703      8706      8709      8710      8703      8706      8709      8711
      8703      8706      8709      8712      8704      8703      8706      8707
      8704      8703      8706      8708      8704      8703      8706      8709
      8705      8703      8706      8707      8705      8703      8706      8708
      8705      8703      8706      8709      8707      8706      8709      8710
      8707      8706      8709      8711      8707      8706      8709      8712
      8708      8706      8709      8710      8708      8706      8709      8711
      8708      8706      8709      8712      8713      8716      8719      8720
      8713      8716      8719      8721      8713      8716      8719      8722
      8714      8713      8716      8717      8714      8713      8716      8718
      8714      8713      8716      8719      8715      8713      8716      8717
      8715      8713      8716      8718      8715      8713      8716      8719
      8716      8719      8722      8723      8716      8719      8722      8724
      8716      8719      8722      8725      8717      8716      8719      8720
      8717      8716      8719      8721      8717      8716      8719      8722
      8718      8716      8719      8720      8718      8716      8719      8721
      8718      8716      8719      8722      8719      8722      8725      8726
      8719      8722      8725      8727      8719      8722      8725      8728
      8720      8719      8722      8723      8720      8719      8722      8724
      8720      8719      8722      8725      8721      8719      8722      8723
      8721      8719      8722      8724      8721      8719      8722      8725
      8722      8725      8728      8729      8722      8725      8728      8730
      8722      8725      8728      8731      8723      8722      8725      8726
      8723      8722      8725      8727      8723      8722      8725      8728
      8724      8722      8725      8726      8724      8722      8725      8727
      8724      8722      8725      8728      8725      8728      8731      8732
      8725      8728      8731      8733      8725      8728      8731      8734
      8726      8725      8728      8729      8726      8725      8728      8730
      8726      8725      8728      8731      8727      8725      8728      8729
      8727      8725      8728      8730      8727      8725      8728      8731
      8728      8731      8734      8735      8728      8731      8734      8736
      8728      8731      8734      8737      8729      8728      8731      8732
      8729      8728      8731      8733      8729      8728      8731      8734
      8730      8728      8731      8732      8730      8728      8731      8733
      8730      8728      8731      8734      8731      8734      8737      8738
      8731      8734      8737      8739      8731      8734      8737      8740
      8732      8731      8734      8735      8732      8731      8734      8736
      8732      8731      8734      8737      8733      8731      8734      8735
      8733      8731      8734      8736      8733      8731      8734      8737
      8734      8737      8740      8741      8734      8737      8740      8742
      8734      8737      8740      8743      8735      8734      8737      8738
      8735      8734      8737      8739      8735      8734      8737      8740
      8736      8734      8737      8738      8736      8734      8737      8739
      8736      8734      8737      8740      8737      8740      8743      8744
      8737      8740      8743      8745      8737      8740      8743      8746
      8738      8737      8740      8741      8738      8737      8740      8742
      8738      8737      8740      8743      8739      8737      8740      8741
      8739      8737      8740      8742      8739      8737      8740      8743
      8740      8743      8746      8747      8740      8743      8746      8748
      8740      8743      8746      8749      8741      8740      8743      8744
      8741      8740      8743      8745      8741      8740      8743      8746
      8742      8740      8743      8744      8742      8740      8743      8745
      8742      8740      8743      8746      8743      8746      8749      8750
      8743      8746      8749      8751      8743      8746      8749      8752
      8744      8743      8746      8747      8744      8743      8746      8748
      8744      8743      8746      8749      8745      8743      8746      8747
      8745      8743      8746      8748      8745      8743      8746      8749
      8746      8749      8752      8753      8746      8749      8752      8754
      8746      8749      8752      8755      8747      8746      8749      8750
      8747      8746      8749      8751      8747      8746      8749      8752
      8748      8746      8749      8750      8748      8746      8749      8751
      8748      8746      8749      8752      8750      8749      8752      8753
      8750      8749      8752      8754      8750      8749      8752      8755
      8751      8749      8752      8753      8751      8749      8752      8754
      8751      8749      8752      8755      8756      8760      8762      8763
      8756      8760      8762      8764      8756      8760      8765      8766
      8756      8760      8765      8767      8756      8760      8765      8771
      8757      8756      8760      8761      8757      8756      8760      8762
      8757      8756      8760      8765      8758      8756      8760      8761
      8758      8756      8760      8762      8758      8756      8760      8765
      8759      8756      8760      8761      8759      8756      8760      8762
      8759      8756      8760      8765      8760      8765      8771      8768
      8761      8760      8762      8763      8761      8760      8762      8764
      8761      8760      8765      8766      8761      8760      8765      8767
      8761      8760      8765      8771      8762      8760      8765      8766
      8762      8760      8765      8767      8762      8760      8765      8771
      8763      8762      8760      8765      8764      8762      8760      8765
      8765      8771      8768      8769      8765      8771      8768      8770
      8765      8771      8768      8772      8766      8765      8771      8768
      8767      8765      8771      8768      8768      8772      8773      8774
      8768      8772      8773      8775      8768      8772      8773      8776
      8769      8768      8772      8773      8770      8768      8772      8773
      8771      8768      8772      8773      8772      8773      8776      8777
      8772      8773      8776      8778      8772      8773      8776      8784
      8773      8776      8778      8779      8773      8776      8784      8785
      8773      8776      8784      8786      8773      8776      8784      8787
      8774      8773      8776      8777      8774      8773      8776      8778
      8774      8773      8776      8784      8775      8773      8776      8777
      8775      8773      8776      8778      8775      8773      8776      8784
      8776      8778      8779      8780      8776      8778      8779      8781
      8776      8784      8787      8788      8777      8776      8778      8779
      8777      8776      8784      8785      8777      8776      8784      8786
      8777      8776      8784      8787      8778      8776      8784      8785
      8778      8776      8784      8786      8778      8776      8784      8787
      8778      8779      8781      8782      8778      8779      8781      8783
      8778      8779      8781      8793      8779      8778      8776      8784
      8779      8781      8793      8794      8779      8781      8793      8795
      8779      8781      8793      8796      8780      8779      8781      8782
      8780      8779      8781      8783      8780      8779      8781      8793
      8781      8793      8796      8797      8781      8793      8796      8798
      8781      8793      8796      8799      8782      8781      8793      8794
      8782      8781      8793      8795      8782      8781      8793      8796
      8783      8781      8793      8794      8783      8781      8793      8795
      8783      8781      8793      8796      8784      8787      8788      8789
      8784      8787      8788      8790      8785      8784      8787      8788
      8786      8784      8787      8788      8787      8788      8790      8791
      8787      8788      8790      8792      8787      8788      8790      8840
      8788      8790      8840      8841      8788      8790      8840      8842
      8788      8790      8840      8843      8789      8788      8790      8791
      8789      8788      8790      8792      8789      8788      8790      8840
      8790      8840      8843      8844      8790      8840      8843      8845
      8790      8840      8843      8846      8791      8790      8840      8841
      8791      8790      8840      8842      8791      8790      8840      8843
      8792      8790      8840      8841      8792      8790      8840      8842
      8792      8790      8840      8843      8793      8796      8799      8800
      8793      8796      8799      8801      8793      8796      8799      8802
      8794      8793      8796      8797      8794      8793      8796      8798
      8794      8793      8796      8799      8795      8793      8796      8797
      8795      8793      8796      8798      8795      8793      8796      8799
      8796      8799      8802      8803      8796      8799      8802      8804
      8796      8799      8802      8805      8797      8796      8799      8800
      8797      8796      8799      8801      8797      8796      8799      8802
      8798      8796      8799      8800      8798      8796      8799      8801
      8798      8796      8799      8802      8799      8802      8805      8806
      8799      8802      8805      8807      8799      8802      8805      8808
      8800      8799      8802      8803      8800      8799      8802      8804
      8800      8799      8802      8805      8801      8799      8802      8803
      8801      8799      8802      8804      8801      8799      8802      8805
      8802      8805      8808      8809      8802      8805      8808      8810
      8802      8805      8808      8811      8803      8802      8805      8806
      8803      8802      8805      8807      8803      8802      8805      8808
      8804      8802      8805      8806      8804      8802      8805      8807
      8804      8802      8805      8808      8805      8808      8811      8812
      8805      8808      8811      8813      8806      8805      8808      8809
      8806      8805      8808      8810      8806      8805      8808      8811
      8807      8805      8808      8809      8807      8805      8808      8810
      8807      8805      8808      8811      8808      8811      8813      8814
      8808      8811      8813      8815      8809      8808      8811      8812
      8809      8808      8811      8813      8810      8808      8811      8812
      8810      8808      8811      8813      8811      8813      8815      8816
      8811      8813      8815      8817      8811      8813      8815      8818
      8812      8811      8813      8814      8812      8811      8813      8815
      8813      8815      8818      8819      8813      8815      8818      8820
      8813      8815      8818      8821      8814      8813      8815      8816
      8814      8813      8815      8817      8814      8813      8815      8818
      8815      8818      8821      8822      8815      8818      8821      8823
      8815      8818      8821      8824      8816      8815      8818      8819
      8816      8815      8818      8820      8816      8815      8818      8821
      8817      8815      8818      8819      8817      8815      8818      8820
      8817      8815      8818      8821      8818      8821      8824      8825
      8818      8821      8824      8826      8818      8821      8824      8827
      8819      8818      8821      8822      8819      8818      8821      8823
      8819      8818      8821      8824      8820      8818      8821      8822
      8820      8818      8821      8823      8820      8818      8821      8824
      8821      8824      8827      8828      8821      8824      8827      8829
      8821      8824      8827      8830      8822      8821      8824      8825
      8822      8821      8824      8826      8822      8821      8824      8827
      8823      8821      8824      8825      8823      8821      8824      8826
      8823      8821      8824      8827      8824      8827      8830      8831
      8824      8827      8830      8832      8824      8827      8830      8833
      8825      8824      8827      8828      8825      8824      8827      8829
      8825      8824      8827      8830      8826      8824      8827      8828
      8826      8824      8827      8829      8826      8824      8827      8830
      8827      8830      8833      8834      8827      8830      8833      8835
      8827      8830      8833      8836      8828      8827      8830      8831
      8828      8827      8830      8832      8828      8827      8830      8833
      8829      8827      8830      8831      8829      8827      8830      8832
      8829      8827      8830      8833      8830      8833      8836      8837
      8830      8833      8836      8838      8830      8833      8836      8839
      8831      8830      8833      8834      8831      8830      8833      8835
      8831      8830      8833      8836      8832      8830      8833      8834
      8832      8830      8833      8835      8832      8830      8833      8836
      8834      8833      8836      8837      8834      8833      8836      8838
      8834      8833      8836      8839      8835      8833      8836      8837
      8835      8833      8836      8838      8835      8833      8836      8839
      8840      8843      8846      8847      8840      8843      8846      8848
      8840      8843      8846      8849      8841      8840      8843      8844
      8841      8840      8843      8845      8841      8840      8843      8846
      8842      8840      8843      8844      8842      8840      8843      8845
      8842      8840      8843      8846      8843      8846      8849      8850
      8843      8846      8849      8851      8843      8846      8849      8852
      8844      8843      8846      8847      8844      8843      8846      8848
      8844      8843      8846      8849      8845      8843      8846      8847
      8845      8843      8846      8848      8845      8843      8846      8849
      8846      8849      8852      8853      8846      8849      8852      8854
      8846      8849      8852      8855      8847      8846      8849      8850
      8847      8846      8849      8851      8847      8846      8849      8852
      8848      8846      8849      8850      8848      8846      8849      8851
      8848      8846      8849      8852      8849      8852      8855      8856
      8849      8852      8855      8857      8849      8852      8855      8858
      8850      8849      8852      8853      8850      8849      8852      8854
      8850      8849      8852      8855      8851      8849      8852      8853
      8851      8849      8852      8854      8851      8849      8852      8855
      8852      8855      8858      8859      8852      8855      8858      8860
      8852      8855      8858      8861      8853      8852      8855      8856
      8853      8852      8855      8857      8853      8852      8855      8858
      8854      8852      8855      8856      8854      8852      8855      8857
      8854      8852      8855      8858      8855      8858      8861      8862
      8855      8858      8861      8863      8855      8858      8861      8864
      8856      8855      8858      8859      8856      8855      8858      8860
      8856      8855      8858      8861      8857      8855      8858      8859
      8857      8855      8858      8860      8857      8855      8858      8861
      8858      8861      8864      8865      8858      8861      8864      8866
      8858      8861      8864      8867      8859      8858      8861      8862
      8859      8858      8861      8863      8859      8858      8861      8864
      8860      8858      8861      8862      8860      8858      8861      8863
      8860      8858      8861      8864      8861      8864      8867      8868
      8861      8864      8867      8869      8861      8864      8867      8870
      8862      8861      8864      8865      8862      8861      8864      8866
      8862      8861      8864      8867      8863      8861      8864      8865
      8863      8861      8864      8866      8863      8861      8864      8867
      8864      8867      8870      8871      8864      8867      8870      8872
      8864      8867      8870      8873      8865      8864      8867      8868
      8865      8864      8867      8869      8865      8864      8867      8870
      8866      8864      8867      8868      8866      8864      8867      8869
      8866      8864      8867      8870      8867      8870      8873      8874
      8867      8870      8873      8875      8867      8870      8873      8876
      8868      8867      8870      8871      8868      8867      8870      8872
      8868      8867      8870      8873      8869      8867      8870      8871
      8869      8867      8870      8872      8869      8867      8870      8873
      8870      8873      8876      8877      8870      8873      8876      8878
      8870      8873      8876      8879      8871      8870      8873      8874
      8871      8870      8873      8875      8871      8870      8873      8876
      8872      8870      8873      8874      8872      8870      8873      8875
      8872      8870      8873      8876      8873      8876      8879      8880
      8873      8876      8879      8881      8873      8876      8879      8882
      8874      8873      8876      8877      8874      8873      8876      8878
      8874      8873      8876      8879      8875      8873      8876      8877
      8875      8873      8876      8878      8875      8873      8876      8879
      8877      8876      8879      8880      8877      8876      8879      8881
      8877      8876      8879      8882      8878      8876      8879      8880
      8878      8876      8879      8881      8878      8876      8879      8882
      8883      8884      8899      8900      8883      8884      8899      8901
      8883      8884      8899      8905      8884      8883      8887      8888
      8884      8883      8887      8889      8884      8883      8887      8890
      8884      8883      8891      8892      8884      8883      8891      8893
      8884      8883      8891      8894      8884      8883      8895      8896
      8884      8883      8895      8897      8884      8883      8895      8898
      8884      8899      8905      8902      8885      8884      8883      8887
      8885      8884      8883      8891      8885      8884      8883      8895
      8885      8884      8899      8900      8885      8884      8899      8901
      8885      8884      8899      8905      8886      8884      8883      8887
      8886      8884      8883      8891      8886      8884      8883      8895
      8886      8884      8899      8900      8886      8884      8899      8901
      8886      8884      8899      8905      8887      8883      8884      8899
      8887      8883      8891      8892      8887      8883      8891      8893
      8887      8883      8891      8894      8887      8883      8895      8896
      8887      8883      8895      8897      8887      8883      8895      8898
      8888      8887      8883      8891      8888      8887      8883      8895
      8889      8887      8883      8891      8889      8887      8883      8895
      8890      8887      8883      8891      8890      8887      8883      8895
      8891      8883      8884      8899      8891      8883      8895      8896
      8891      8883      8895      8897      8891      8883      8895      8898
      8892      8891      8883      8895      8893      8891      8883      8895
      8894      8891      8883      8895      8895      8883      8884      8899
      8899      8905      8902      8903      8899      8905      8902      8904
      8899      8905      8902      8906      8900      8899      8905      8902
      8901      8899      8905      8902      8902      8906      8907      8908
      8902      8906      8907      8909      8902      8906      8907      8910
      8903      8902      8906      8907      8904      8902      8906      8907
      8905      8902      8906      8907      8906      8907      8910      8911
      8906      8907      8910      8912      8906      8907      8910      8918
      8907      8910      8912      8913      8907      8910      8918      8919
      8907      8910      8918      8920      8907      8910      8918      8921
      8908      8907      8910      8911      8908      8907      8910      8912
      8908      8907      8910      8918      8909      8907      8910      8911
      8909      8907      8910      8912      8909      8907      8910      8918
      8910      8912      8913      8914      8910      8912      8913      8915
      8910      8918      8921      8922      8911      8910      8912      8913
      8911      8910      8918      8919      8911      8910      8918      8920
      8911      8910      8918      8921      8912      8910      8918      8919
      8912      8910      8918      8920      8912      8910      8918      8921
      8912      8913      8915      8916      8912      8913      8915      8917
      8912      8913      8915      8927      8913      8912      8910      8918
      8913      8915      8927      8928      8913      8915      8927      8929
      8913      8915      8927      8930      8914      8913      8915      8916
      8914      8913      8915      8917      8914      8913      8915      8927
      8915      8927      8930      8931      8915      8927      8930      8932
      8915      8927      8930      8933      8916      8915      8927      8928
      8916      8915      8927      8929      8916      8915      8927      8930
      8917      8915      8927      8928      8917      8915      8927      8929
      8917      8915      8927      8930      8918      8921      8922      8923
      8918      8921      8922      8924      8919      8918      8921      8922
      8920      8918      8921      8922      8921      8922      8924      8925
      8921      8922      8924      8926      8921      8922      8924      8974
      8922      8924      8974      8975      8922      8924      8974      8976
      8922      8924      8974      8977      8923      8922      8924      8925
      8923      8922      8924      8926      8923      8922      8924      8974
      8924      8974      8977      8978      8924      8974      8977      8979
      8924      8974      8977      8980      8925      8924      8974      8975
      8925      8924      8974      8976      8925      8924      8974      8977
      8926      8924      8974      8975      8926      8924      8974      8976
      8926      8924      8974      8977      8927      8930      8933      8934
      8927      8930      8933      8935      8927      8930      8933      8936
      8928      8927      8930      8931      8928      8927      8930      8932
      8928      8927      8930      8933      8929      8927      8930      8931
      8929      8927      8930      8932      8929      8927      8930      8933
      8930      8933      8936      8937      8930      8933      8936      8938
      8930      8933      8936      8939      8931      8930      8933      8934
      8931      8930      8933      8935      8931      8930      8933      8936
      8932      8930      8933      8934      8932      8930      8933      8935
      8932      8930      8933      8936      8933      8936      8939      8940
      8933      8936      8939      8941      8933      8936      8939      8942
      8934      8933      8936      8937      8934      8933      8936      8938
      8934      8933      8936      8939      8935      8933      8936      8937
      8935      8933      8936      8938      8935      8933      8936      8939
      8936      8939      8942      8943      8936      8939      8942      8944
      8936      8939      8942      8945      8937      8936      8939      8940
      8937      8936      8939      8941      8937      8936      8939      8942
      8938      8936      8939      8940      8938      8936      8939      8941
      8938      8936      8939      8942      8939      8942      8945      8946
      8939      8942      8945      8947      8940      8939      8942      8943
      8940      8939      8942      8944      8940      8939      8942      8945
      8941      8939      8942      8943      8941      8939      8942      8944
      8941      8939      8942      8945      8942      8945      8947      8948
      8942      8945      8947      8949      8943      8942      8945      8946
      8943      8942      8945      8947      8944      8942      8945      8946
      8944      8942      8945      8947      8945      8947      8949      8950
      8945      8947      8949      8951      8945      8947      8949      8952
      8946      8945      8947      8948      8946      8945      8947      8949
      8947      8949      8952      8953      8947      8949      8952      8954
      8947      8949      8952      8955      8948      8947      8949      8950
      8948      8947      8949      8951      8948      8947      8949      8952
      8949      8952      8955      8956      8949      8952      8955      8957
      8949      8952      8955      8958      8950      8949      8952      8953
      8950      8949      8952      8954      8950      8949      8952      8955
      8951      8949      8952      8953      8951      8949      8952      8954
      8951      8949      8952      8955      8952      8955      8958      8959
      8952      8955      8958      8960      8952      8955      8958      8961
      8953      8952      8955      8956      8953      8952      8955      8957
      8953      8952      8955      8958      8954      8952      8955      8956
      8954      8952      8955      8957      8954      8952      8955      8958
      8955      8958      8961      8962      8955      8958      8961      8963
      8955      8958      8961      8964      8956      8955      8958      8959
      8956      8955      8958      8960      8956      8955      8958      8961
      8957      8955      8958      8959      8957      8955      8958      8960
      8957      8955      8958      8961      8958      8961      8964      8965
      8958      8961      8964      8966      8958      8961      8964      8967
      8959      8958      8961      8962      8959      8958      8961      8963
      8959      8958      8961      8964      8960      8958      8961      8962
      8960      8958      8961      8963      8960      8958      8961      8964
      8961      8964      8967      8968      8961      8964      8967      8969
      8961      8964      8967      8970      8962      8961      8964      8965
      8962      8961      8964      8966      8962      8961      8964      8967
      8963      8961      8964      8965      8963      8961      8964      8966
      8963      8961      8964      8967      8964      8967      8970      8971
      8964      8967      8970      8972      8964      8967      8970      8973
      8965      8964      8967      8968      8965      8964      8967      8969
      8965      8964      8967      8970      8966      8964      8967      8968
      8966      8964      8967      8969      8966      8964      8967      8970
      8968      8967      8970      8971      8968      8967      8970      8972
      8968      8967      8970      8973      8969      8967      8970      8971
      8969      8967      8970      8972      8969      8967      8970      8973
      8974      8977      8980      8981      8974      8977      8980      8982
      8974      8977      8980      8983      8975      8974      8977      8978
      8975      8974      8977      8979      8975      8974      8977      8980
      8976      8974      8977      8978      8976      8974      8977      8979
      8976      8974      8977      8980      8977      8980      8983      8984
      8977      8980      8983      8985      8977      8980      8983      8986
      8978      8977      8980      8981      8978      8977      8980      8982
      8978      8977      8980      8983      8979      8977      8980      8981
      8979      8977      8980      8982      8979      8977      8980      8983
      8980      8983      8986      8987      8980      8983      8986      8988
      8980      8983      8986      8989      8981      8980      8983      8984
      8981      8980      8983      8985      8981      8980      8983      8986
      8982      8980      8983      8984      8982      8980      8983      8985
      8982      8980      8983      8986      8983      8986      8989      8990
      8983      8986      8989      8991      8983      8986      8989      8992
      8984      8983      8986      8987      8984      8983      8986      8988
      8984      8983      8986      8989      8985      8983      8986      8987
      8985      8983      8986      8988      8985      8983      8986      8989
      8986      8989      8992      8993      8986      8989      8992      8994
      8986      8989      8992      8995      8987      8986      8989      8990
      8987      8986      8989      8991      8987      8986      8989      8992
      8988      8986      8989      8990      8988      8986      8989      8991
      8988      8986      8989      8992      8989      8992      8995      8996
      8989      8992      8995      8997      8989      8992      8995      8998
      8990      8989      8992      8993      8990      8989      8992      8994
      8990      8989      8992      8995      8991      8989      8992      8993
      8991      8989      8992      8994      8991      8989      8992      8995
      8992      8995      8998      8999      8992      8995      8998      9000
      8992      8995      8998      9001      8993      8992      8995      8996
      8993      8992      8995      8997      8993      8992      8995      8998
      8994      8992      8995      8996      8994      8992      8995      8997
      8994      8992      8995      8998      8995      8998      9001      9002
      8995      8998      9001      9003      8995      8998      9001      9004
      8996      8995      8998      8999      8996      8995      8998      9000
      8996      8995      8998      9001      8997      8995      8998      8999
      8997      8995      8998      9000      8997      8995      8998      9001
      8998      9001      9004      9005      8998      9001      9004      9006
      8998      9001      9004      9007      8999      8998      9001      9002
      8999      8998      9001      9003      8999      8998      9001      9004
      9000      8998      9001      9002      9000      8998      9001      9003
      9000      8998      9001      9004      9001      9004      9007      9008
      9001      9004      9007      9009      9001      9004      9007      9010
      9002      9001      9004      9005      9002      9001      9004      9006
      9002      9001      9004      9007      9003      9001      9004      9005
      9003      9001      9004      9006      9003      9001      9004      9007
      9004      9007      9010      9011      9004      9007      9010      9012
      9004      9007      9010      9013      9005      9004      9007      9008
      9005      9004      9007      9009      9005      9004      9007      9010
      9006      9004      9007      9008      9006      9004      9007      9009
      9006      9004      9007      9010      9007      9010      9013      9014
      9007      9010      9013      9015      9007      9010      9013      9016
      9008      9007      9010      9011      9008      9007      9010      9012
      9008      9007      9010      9013      9009      9007      9010      9011
      9009      9007      9010      9012      9009      9007      9010      9013
      9011      9010      9013      9014      9011      9010      9013      9015
      9011      9010      9013      9016      9012      9010      9013      9014
      9012      9010      9013      9015      9012      9010      9013      9016
      9017      9018      9033      9034      9017      9018      9033      9035
      9017      9018      9033      9039      9018      9017      9021      9022
      9018      9017      9021      9023      9018      9017      9021      9024
      9018      9017      9025      9026      9018      9017      9025      9027
      9018      9017      9025      9028      9018      9017      9029      9030
      9018      9017      9029      9031      9018      9017      9029      9032
      9018      9033      9039      9036      9019      9018      9017      9021
      9019      9018      9017      9025      9019      9018      9017      9029
      9019      9018      9033      9034      9019      9018      9033      9035
      9019      9018      9033      9039      9020      9018      9017      9021
      9020      9018      9017      9025      9020      9018      9017      9029
      9020      9018      9033      9034      9020      9018      9033      9035
      9020      9018      9033      9039      9021      9017      9018      9033
      9021      9017      9025      9026      9021      9017      9025      9027
      9021      9017      9025      9028      9021      9017      9029      9030
      9021      9017      9029      9031      9021      9017      9029      9032
      9022      9021      9017      9025      9022      9021      9017      9029
      9023      9021      9017      9025      9023      9021      9017      9029
      9024      9021      9017      9025      9024      9021      9017      9029
      9025      9017      9018      9033      9025      9017      9029      9030
      9025      9017      9029      9031      9025      9017      9029      9032
      9026      9025      9017      9029      9027      9025      9017      9029
      9028      9025      9017      9029      9029      9017      9018      9033
      9033      9039      9036      9037      9033      9039      9036      9038
      9033      9039      9036      9040      9034      9033      9039      9036
      9035      9033      9039      9036      9036      9040      9041      9042
      9036      9040      9041      9043      9036      9040      9041      9044
      9037      9036      9040      9041      9038      9036      9040      9041
      9039      9036      9040      9041      9040      9041      9044      9045
      9040      9041      9044      9046      9040      9041      9044      9052
      9041      9044      9046      9047      9041      9044      9052      9053
      9041      9044      9052      9054      9041      9044      9052      9055
      9042      9041      9044      9045      9042      9041      9044      9046
      9042      9041      9044      9052      9043      9041      9044      9045
      9043      9041      9044      9046      9043      9041      9044      9052
      9044      9046      9047      9048      9044      9046      9047      9049
      9044      9052      9055      9056      9045      9044      9046      9047
      9045      9044      9052      9053      9045      9044      9052      9054
      9045      9044      9052      9055      9046      9044      9052      9053
      9046      9044      9052      9054      9046      9044      9052      9055
      9046      9047      9049      9050      9046      9047      9049      9051
      9046      9047      9049      9061      9047      9046      9044      9052
      9047      9049      9061      9062      9047      9049      9061      9063
      9047      9049      9061      9064      9048      9047      9049      9050
      9048      9047      9049      9051      9048      9047      9049      9061
      9049      9061      9064      9065      9049      9061      9064      9066
      9049      9061      9064      9067      9050      9049      9061      9062
      9050      9049      9061      9063      9050      9049      9061      9064
      9051      9049      9061      9062      9051      9049      9061      9063
      9051      9049      9061      9064      9052      9055      9056      9057
      9052      9055      9056      9058      9053      9052      9055      9056
      9054      9052      9055      9056      9055      9056      9058      9059
      9055      9056      9058      9060      9055      9056      9058      9108
      9056      9058      9108      9109      9056      9058      9108      9110
      9056      9058      9108      9111      9057      9056      9058      9059
      9057      9056      9058      9060      9057      9056      9058      9108
      9058      9108      9111      9112      9058      9108      9111      9113
      9058      9108      9111      9114      9059      9058      9108      9109
      9059      9058      9108      9110      9059      9058      9108      9111
      9060      9058      9108      9109      9060      9058      9108      9110
      9060      9058      9108      9111      9061      9064      9067      9068
      9061      9064      9067      9069      9061      9064      9067      9070
      9062      9061      9064      9065      9062      9061      9064      9066
      9062      9061      9064      9067      9063      9061      9064      9065
      9063      9061      9064      9066      9063      9061      9064      9067
      9064      9067      9070      9071      9064      9067      9070      9072
      9064      9067      9070      9073      9065      9064      9067      9068
      9065      9064      9067      9069      9065      9064      9067      9070
      9066      9064      9067      9068      9066      9064      9067      9069
      9066      9064      9067      9070      9067      9070      9073      9074
      9067      9070      9073      9075      9067      9070      9073      9076
      9068      9067      9070      9071      9068      9067      9070      9072
      9068      9067      9070      9073      9069      9067      9070      9071
      9069      9067      9070      9072      9069      9067      9070      9073
      9070      9073      9076      9077      9070      9073      9076      9078
      9070      9073      9076      9079      9071      9070      9073      9074
      9071      9070      9073      9075      9071      9070      9073      9076
      9072      9070      9073      9074      9072      9070      9073      9075
      9072      9070      9073      9076      9073      9076      9079      9080
      9073      9076      9079      9081      9074      9073      9076      9077
      9074      9073      9076      9078      9074      9073      9076      9079
      9075      9073      9076      9077      9075      9073      9076      9078
      9075      9073      9076      9079      9076      9079      9081      9082
      9076      9079      9081      9083      9077      9076      9079      9080
      9077      9076      9079      9081      9078      9076      9079      9080
      9078      9076      9079      9081      9079      9081      9083      9084
      9079      9081      9083      9085      9079      9081      9083      9086
      9080      9079      9081      9082      9080      9079      9081      9083
      9081      9083      9086      9087      9081      9083      9086      9088
      9081      9083      9086      9089      9082      9081      9083      9084
      9082      9081      9083      9085      9082      9081      9083      9086
      9083      9086      9089      9090      9083      9086      9089      9091
      9083      9086      9089      9092      9084      9083      9086      9087
      9084      9083      9086      9088      9084      9083      9086      9089
      9085      9083      9086      9087      9085      9083      9086      9088
      9085      9083      9086      9089      9086      9089      9092      9093
      9086      9089      9092      9094      9086      9089      9092      9095
      9087      9086      9089      9090      9087      9086      9089      9091
      9087      9086      9089      9092      9088      9086      9089      9090
      9088      9086      9089      9091      9088      9086      9089      9092
      9089      9092      9095      9096      9089      9092      9095      9097
      9089      9092      9095      9098      9090      9089      9092      9093
      9090      9089      9092      9094      9090      9089      9092      9095
      9091      9089      9092      9093      9091      9089      9092      9094
      9091      9089      9092      9095      9092      9095      9098      9099
      9092      9095      9098      9100      9092      9095      9098      9101
      9093      9092      9095      9096      9093      9092      9095      9097
      9093      9092      9095      9098      9094      9092      9095      9096
      9094      9092      9095      9097      9094      9092      9095      9098
      9095      9098      9101      9102      9095      9098      9101      9103
      9095      9098      9101      9104      9096      9095      9098      9099
      9096      9095      9098      9100      9096      9095      9098      9101
      9097      9095      9098      9099      9097      9095      9098      9100
      9097      9095      9098      9101      9098      9101      9104      9105
      9098      9101      9104      9106      9098      9101      9104      9107
      9099      9098      9101      9102      9099      9098      9101      9103
      9099      9098      9101      9104      9100      9098      9101      9102
      9100      9098      9101      9103      9100      9098      9101      9104
      9102      9101      9104      9105      9102      9101      9104      9106
      9102      9101      9104      9107      9103      9101      9104      9105
      9103      9101      9104      9106      9103      9101      9104      9107
      9108      9111      9114      9115      9108      9111      9114      9116
      9108      9111      9114      9117      9109      9108      9111      9112
      9109      9108      9111      9113      9109      9108      9111      9114
      9110      9108      9111      9112      9110      9108      9111      9113
      9110      9108      9111      9114      9111      9114      9117      9118
      9111      9114      9117      9119      9111      9114      9117      9120
      9112      9111      9114      9115      9112      9111      9114      9116
      9112      9111      9114      9117      9113      9111      9114      9115
      9113      9111      9114      9116      9113      9111      9114      9117
      9114      9117      9120      9121      9114      9117      9120      9122
      9114      9117      9120      9123      9115      9114      9117      9118
      9115      9114      9117      9119      9115      9114      9117      9120
      9116      9114      9117      9118      9116      9114      9117      9119
      9116      9114      9117      9120      9117      9120      9123      9124
      9117      9120      9123      9125      9117      9120      9123      9126
      9118      9117      9120      9121      9118      9117      9120      9122
      9118      9117      9120      9123      9119      9117      9120      9121
      9119      9117      9120      9122      9119      9117      9120      9123
      9120      9123      9126      9127      9120      9123      9126      9128
      9120      9123      9126      9129      9121      9120      9123      9124
      9121      9120      9123      9125      9121      9120      9123      9126
      9122      9120      9123      9124      9122      9120      9123      9125
      9122      9120      9123      9126      9123      9126      9129      9130
      9123      9126      9129      9131      9123      9126      9129      9132
      9124      9123      9126      9127      9124      9123      9126      9128
      9124      9123      9126      9129      9125      9123      9126      9127
      9125      9123      9126      9128      9125      9123      9126      9129
      9126      9129      9132      9133      9126      9129      9132      9134
      9126      9129      9132      9135      9127      9126      9129      9130
      9127      9126      9129      9131      9127      9126      9129      9132
      9128      9126      9129      9130      9128      9126      9129      9131
      9128      9126      9129      9132      9129      9132      9135      9136
      9129      9132      9135      9137      9129      9132      9135      9138
      9130      9129      9132      9133      9130      9129      9132      9134
      9130      9129      9132      9135      9131      9129      9132      9133
      9131      9129      9132      9134      9131      9129      9132      9135
      9132      9135      9138      9139      9132      9135      9138      9140
      9132      9135      9138      9141      9133      9132      9135      9136
      9133      9132      9135      9137      9133      9132      9135      9138
      9134      9132      9135      9136      9134      9132      9135      9137
      9134      9132      9135      9138      9135      9138      9141      9142
      9135      9138      9141      9143      9135      9138      9141      9144
      9136      9135      9138      9139      9136      9135      9138      9140
      9136      9135      9138      9141      9137      9135      9138      9139
      9137      9135      9138      9140      9137      9135      9138      9141
      9138      9141      9144      9145      9138      9141      9144      9146
      9138      9141      9144      9147      9139      9138      9141      9142
      9139      9138      9141      9143      9139      9138      9141      9144
      9140      9138      9141      9142      9140      9138      9141      9143
      9140      9138      9141      9144      9141      9144      9147      9148
      9141      9144      9147      9149      9141      9144      9147      9150
      9142      9141      9144      9145      9142      9141      9144      9146
      9142      9141      9144      9147      9143      9141      9144      9145
      9143      9141      9144      9146      9143      9141      9144      9147
      9145      9144      9147      9148      9145      9144      9147      9149
      9145      9144      9147      9150      9146      9144      9147      9148
      9146      9144      9147      9149      9146      9144      9147      9150
      9151      9152      9167      9168      9151      9152      9167      9169
      9151      9152      9167      9173      9152      9151      9155      9156
      9152      9151      9155      9157      9152      9151      9155      9158
      9152      9151      9159      9160      9152      9151      9159      9161
      9152      9151      9159      9162      9152      9151      9163      9164
      9152      9151      9163      9165      9152      9151      9163      9166
      9152      9167      9173      9170      9153      9152      9151      9155
      9153      9152      9151      9159      9153      9152      9151      9163
      9153      9152      9167      9168      9153      9152      9167      9169
      9153      9152      9167      9173      9154      9152      9151      9155
      9154      9152      9151      9159      9154      9152      9151      9163
      9154      9152      9167      9168      9154      9152      9167      9169
      9154      9152      9167      9173      9155      9151      9152      9167
      9155      9151      9159      9160      9155      9151      9159      9161
      9155      9151      9159      9162      9155      9151      9163      9164
      9155      9151      9163      9165      9155      9151      9163      9166
      9156      9155      9151      9159      9156      9155      9151      9163
      9157      9155      9151      9159      9157      9155      9151      9163
      9158      9155      9151      9159      9158      9155      9151      9163
      9159      9151      9152      9167      9159      9151      9163      9164
      9159      9151      9163      9165      9159      9151      9163      9166
      9160      9159      9151      9163      9161      9159      9151      9163
      9162      9159      9151      9163      9163      9151      9152      9167
      9167      9173      9170      9171      9167      9173      9170      9172
      9167      9173      9170      9174      9168      9167      9173      9170
      9169      9167      9173      9170      9170      9174      9175      9176
      9170      9174      9175      9177      9170      9174      9175      9178
      9171      9170      9174      9175      9172      9170      9174      9175
      9173      9170      9174      9175      9174      9175      9178      9179
      9174      9175      9178      9180      9174      9175      9178      9186
      9175      9178      9180      9181      9175      9178      9186      9187
      9175      9178      9186      9188      9175      9178      9186      9189
      9176      9175      9178      9179      9176      9175      9178      9180
      9176      9175      9178      9186      9177      9175      9178      9179
      9177      9175      9178      9180      9177      9175      9178      9186
      9178      9180      9181      9182      9178      9180      9181      9183
      9178      9186      9189      9190      9179      9178      9180      9181
      9179      9178      9186      9187      9179      9178      9186      9188
      9179      9178      9186      9189      9180      9178      9186      9187
      9180      9178      9186      9188      9180      9178      9186      9189
      9180      9181      9183      9184      9180      9181      9183      9185
      9180      9181      9183      9195      9181      9180      9178      9186
      9181      9183      9195      9196      9181      9183      9195      9197
      9181      9183      9195      9198      9182      9181      9183      9184
      9182      9181      9183      9185      9182      9181      9183      9195
      9183      9195      9198      9199      9183      9195      9198      9200
      9183      9195      9198      9201      9184      9183      9195      9196
      9184      9183      9195      9197      9184      9183      9195      9198
      9185      9183      9195      9196      9185      9183      9195      9197
      9185      9183      9195      9198      9186      9189      9190      9191
      9186      9189      9190      9192      9187      9186      9189      9190
      9188      9186      9189      9190      9189      9190      9192      9193
      9189      9190      9192      9194      9189      9190      9192      9242
      9190      9192      9242      9243      9190      9192      9242      9244
      9190      9192      9242      9245      9191      9190      9192      9193
      9191      9190      9192      9194      9191      9190      9192      9242
      9192      9242      9245      9246      9192      9242      9245      9247
      9192      9242      9245      9248      9193      9192      9242      9243
      9193      9192      9242      9244      9193      9192      9242      9245
      9194      9192      9242      9243      9194      9192      9242      9244
      9194      9192      9242      9245      9195      9198      9201      9202
      9195      9198      9201      9203      9195      9198      9201      9204
      9196      9195      9198      9199      9196      9195      9198      9200
      9196      9195      9198      9201      9197      9195      9198      9199
      9197      9195      9198      9200      9197      9195      9198      9201
      9198      9201      9204      9205      9198      9201      9204      9206
      9198      9201      9204      9207      9199      9198      9201      9202
      9199      9198      9201      9203      9199      9198      9201      9204
      9200      9198      9201      9202      9200      9198      9201      9203
      9200      9198      9201      9204      9201      9204      9207      9208
      9201      9204      9207      9209      9201      9204      9207      9210
      9202      9201      9204      9205      9202      9201      9204      9206
      9202      9201      9204      9207      9203      9201      9204      9205
      9203      9201      9204      9206      9203      9201      9204      9207
      9204      9207      9210      9211      9204      9207      9210      9212
      9204      9207      9210      9213      9205      9204      9207      9208
      9205      9204      9207      9209      9205      9204      9207      9210
      9206      9204      9207      9208      9206      9204      9207      9209
      9206      9204      9207      9210      9207      9210      9213      9214
      9207      9210      9213      9215      9208      9207      9210      9211
      9208      9207      9210      9212      9208      9207      9210      9213
      9209      9207      9210      9211      9209      9207      9210      9212
      9209      9207      9210      9213      9210      9213      9215      9216
      9210      9213      9215      9217      9211      9210      9213      9214
      9211      9210      9213      9215      9212      9210      9213      9214
      9212      9210      9213      9215      9213      9215      9217      9218
      9213      9215      9217      9219      9213      9215      9217      9220
      9214      9213      9215      9216      9214      9213      9215      9217
      9215      9217      9220      9221      9215      9217      9220      9222
      9215      9217      9220      9223      9216      9215      9217      9218
      9216      9215      9217      9219      9216      9215      9217      9220
      9217      9220      9223      9224      9217      9220      9223      9225
      9217      9220      9223      9226      9218      9217      9220      9221
      9218      9217      9220      9222      9218      9217      9220      9223
      9219      9217      9220      9221      9219      9217      9220      9222
      9219      9217      9220      9223      9220      9223      9226      9227
      9220      9223      9226      9228      9220      9223      9226      9229
      9221      9220      9223      9224      9221      9220      9223      9225
      9221      9220      9223      9226      9222      9220      9223      9224
      9222      9220      9223      9225      9222      9220      9223      9226
      9223      9226      9229      9230      9223      9226      9229      9231
      9223      9226      9229      9232      9224      9223      9226      9227
      9224      9223      9226      9228      9224      9223      9226      9229
      9225      9223      9226      9227      9225      9223      9226      9228
      9225      9223      9226      9229      9226      9229      9232      9233
      9226      9229      9232      9234      9226      9229      9232      9235
      9227      9226      9229      9230      9227      9226      9229      9231
      9227      9226      9229      9232      9228      9226      9229      9230
      9228      9226      9229      9231      9228      9226      9229      9232
      9229      9232      9235      9236      9229      9232      9235      9237
      9229      9232      9235      9238      9230      9229      9232      9233
      9230      9229      9232      9234      9230      9229      9232      9235
      9231      9229      9232      9233      9231      9229      9232      9234
      9231      9229      9232      9235      9232      9235      9238      9239
      9232      9235      9238      9240      9232      9235      9238      9241
      9233      9232      9235      9236      9233      9232      9235      9237
      9233      9232      9235      9238      9234      9232      9235      9236
      9234      9232      9235      9237      9234      9232      9235      9238
      9236      9235      9238      9239      9236      9235      9238      9240
      9236      9235      9238      9241      9237      9235      9238      9239
      9237      9235      9238      9240      9237      9235      9238      9241
      9242      9245      9248      9249      9242      9245      9248      9250
      9242      9245      9248      9251      9243      9242      9245      9246
      9243      9242      9245      9247      9243      9242      9245      9248
      9244      9242      9245      9246      9244      9242      9245      9247
      9244      9242      9245      9248      9245      9248      9251      9252
      9245      9248      9251      9253      9245      9248      9251      9254
      9246      9245      9248      9249      9246      9245      9248      9250
      9246      9245      9248      9251      9247      9245      9248      9249
      9247      9245      9248      9250      9247      9245      9248      9251
      9248      9251      9254      9255      9248      9251      9254      9256
      9248      9251      9254      9257      9249      9248      9251      9252
      9249      9248      9251      9253      9249      9248      9251      9254
      9250      9248      9251      9252      9250      9248      9251      9253
      9250      9248      9251      9254      9251      9254      9257      9258
      9251      9254      9257      9259      9251      9254      9257      9260
      9252      9251      9254      9255      9252      9251      9254      9256
      9252      9251      9254      9257      9253      9251      9254      9255
      9253      9251      9254      9256      9253      9251      9254      9257
      9254      9257      9260      9261      9254      9257      9260      9262
      9254      9257      9260      9263      9255      9254      9257      9258
      9255      9254      9257      9259      9255      9254      9257      9260
      9256      9254      9257      9258      9256      9254      9257      9259
      9256      9254      9257      9260      9257      9260      9263      9264
      9257      9260      9263      9265      9257      9260      9263      9266
      9258      9257      9260      9261      9258      9257      9260      9262
      9258      9257      9260      9263      9259      9257      9260      9261
      9259      9257      9260      9262      9259      9257      9260      9263
      9260      9263      9266      9267      9260      9263      9266      9268
      9260      9263      9266      9269      9261      9260      9263      9264
      9261      9260      9263      9265      9261      9260      9263      9266
      9262      9260      9263      9264      9262      9260      9263      9265
      9262      9260      9263      9266      9263      9266      9269      9270
      9263      9266      9269      9271      9263      9266      9269      9272
      9264      9263      9266      9267      9264      9263      9266      9268
      9264      9263      9266      9269      9265      9263      9266      9267
      9265      9263      9266      9268      9265      9263      9266      9269
      9266      9269      9272      9273      9266      9269      9272      9274
      9266      9269      9272      9275      9267      9266      9269      9270
      9267      9266      9269      9271      9267      9266      9269      9272
      9268      9266      9269      9270      9268      9266      9269      9271
      9268      9266      9269      9272      9269      9272      9275      9276
      9269      9272      9275      9277      9269      9272      9275      9278
      9270      9269      9272      9273      9270      9269      9272      9274
      9270      9269      9272      9275      9271      9269      9272      9273
      9271      9269      9272      9274      9271      9269      9272      9275
      9272      9275      9278      9279      9272      9275      9278      9280
      9272      9275      9278      9281      9273      9272      9275      9276
      9273      9272      9275      9277      9273      9272      9275      9278
      9274      9272      9275      9276      9274      9272      9275      9277
      9274      9272      9275      9278      9275      9278      9281      9282
      9275      9278      9281      9283      9275      9278      9281      9284
      9276      9275      9278      9279      9276      9275      9278      9280
      9276      9275      9278      9281      9277      9275      9278      9279
      9277      9275      9278      9280      9277      9275      9278      9281
      9279      9278      9281      9282      9279      9278      9281      9283
      9279      9278      9281      9284      9280      9278      9281      9282
      9280      9278      9281      9283      9280      9278      9281      9284
      9285      9286      9301      9302      9285      9286      9301      9303
      9285      9286      9301      9307      9286      9285      9289      9290
      9286      9285      9289      9291      9286      9285      9289      9292
      9286      9285      9293      9294      9286      9285      9293      9295
      9286      9285      9293      9296      9286      9285      9297      9298
      9286      9285      9297      9299      9286      9285      9297      9300
      9286      9301      9307      9304      9287      9286      9285      9289
      9287      9286      9285      9293      9287      9286      9285      9297
      9287      9286      9301      9302      9287      9286      9301      9303
      9287      9286      9301      9307      9288      9286      9285      9289
      9288      9286      9285      9293      9288      9286      9285      9297
      9288      9286      9301      9302      9288      9286      9301      9303
      9288      9286      9301      9307      9289      9285      9286      9301
      9289      9285      9293      9294      9289      9285      9293      9295
      9289      9285      9293      9296      9289      9285      9297      9298
      9289      9285      9297      9299      9289      9285      9297      9300
      9290      9289      9285      9293      9290      9289      9285      9297
      9291      9289      9285      9293      9291      9289      9285      9297
      9292      9289      9285      9293      9292      9289      9285      9297
      9293      9285      9286      9301      9293      9285      9297      9298
      9293      9285      9297      9299      9293      9285      9297      9300
      9294      9293      9285      9297      9295      9293      9285      9297
      9296      9293      9285      9297      9297      9285      9286      9301
      9301      9307      9304      9305      9301      9307      9304      9306
      9301      9307      9304      9308      9302      9301      9307      9304
      9303      9301      9307      9304      9304      9308      9309      9310
      9304      9308      9309      9311      9304      9308      9309      9312
      9305      9304      9308      9309      9306      9304      9308      9309
      9307      9304      9308      9309      9308      9309      9312      9313
      9308      9309      9312      9314      9308      9309      9312      9320
      9309      9312      9314      9315      9309      9312      9320      9321
      9309      9312      9320      9322      9309      9312      9320      9323
      9310      9309      9312      9313      9310      9309      9312      9314
      9310      9309      9312      9320      9311      9309      9312      9313
      9311      9309      9312      9314      9311      9309      9312      9320
      9312      9314      9315      9316      9312      9314      9315      9317
      9312      9320      9323      9324      9313      9312      9314      9315
      9313      9312      9320      9321      9313      9312      9320      9322
      9313      9312      9320      9323      9314      9312      9320      9321
      9314      9312      9320      9322      9314      9312      9320      9323
      9314      9315      9317      9318      9314      9315      9317      9319
      9314      9315      9317      9329      9315      9314      9312      9320
      9315      9317      9329      9330      9315      9317      9329      9331
      9315      9317      9329      9332      9316      9315      9317      9318
      9316      9315      9317      9319      9316      9315      9317      9329
      9317      9329      9332      9333      9317      9329      9332      9334
      9317      9329      9332      9335      9318      9317      9329      9330
      9318      9317      9329      9331      9318      9317      9329      9332
      9319      9317      9329      9330      9319      9317      9329      9331
      9319      9317      9329      9332      9320      9323      9324      9325
      9320      9323      9324      9326      9321      9320      9323      9324
      9322      9320      9323      9324      9323      9324      9326      9327
      9323      9324      9326      9328      9323      9324      9326      9376
      9324      9326      9376      9377      9324      9326      9376      9378
      9324      9326      9376      9379      9325      9324      9326      9327
      9325      9324      9326      9328      9325      9324      9326      9376
      9326      9376      9379      9380      9326      9376      9379      9381
      9326      9376      9379      9382      9327      9326      9376      9377
      9327      9326      9376      9378      9327      9326      9376      9379
      9328      9326      9376      9377      9328      9326      9376      9378
      9328      9326      9376      9379      9329      9332      9335      9336
      9329      9332      9335      9337      9329      9332      9335      9338
      9330      9329      9332      9333      9330      9329      9332      9334
      9330      9329      9332      9335      9331      9329      9332      9333
      9331      9329      9332      9334      9331      9329      9332      9335
      9332      9335      9338      9339      9332      9335      9338      9340
      9332      9335      9338      9341      9333      9332      9335      9336
      9333      9332      9335      9337      9333      9332      9335      9338
      9334      9332      9335      9336      9334      9332      9335      9337
      9334      9332      9335      9338      9335      9338      9341      9342
      9335      9338      9341      9343      9335      9338      9341      9344
      9336      9335      9338      9339      9336      9335      9338      9340
      9336      9335      9338      9341      9337      9335      9338      9339
      9337      9335      9338      9340      9337      9335      9338      9341
      9338      9341      9344      9345      9338      9341      9344      9346
      9338      9341      9344      9347      9339      9338      9341      9342
      9339      9338      9341      9343      9339      9338      9341      9344
      9340      9338      9341      9342      9340      9338      9341      9343
      9340      9338      9341      9344      9341      9344      9347      9348
      9341      9344      9347      9349      9342      9341      9344      9345
      9342      9341      9344      9346      9342      9341      9344      9347
      9343      9341      9344      9345      9343      9341      9344      9346
      9343      9341      9344      9347      9344      9347      9349      9350
      9344      9347      9349      9351      9345      9344      9347      9348
      9345      9344      9347      9349      9346      9344      9347      9348
      9346      9344      9347      9349      9347      9349      9351      9352
      9347      9349      9351      9353      9347      9349      9351      9354
      9348      9347      9349      9350      9348      9347      9349      9351
      9349      9351      9354      9355      9349      9351      9354      9356
      9349      9351      9354      9357      9350      9349      9351      9352
      9350      9349      9351      9353      9350      9349      9351      9354
      9351      9354      9357      9358      9351      9354      9357      9359
      9351      9354      9357      9360      9352      9351      9354      9355
      9352      9351      9354      9356      9352      9351      9354      9357
      9353      9351      9354      9355      9353      9351      9354      9356
      9353      9351      9354      9357      9354      9357      9360      9361
      9354      9357      9360      9362      9354      9357      9360      9363
      9355      9354      9357      9358      9355      9354      9357      9359
      9355      9354      9357      9360      9356      9354      9357      9358
      9356      9354      9357      9359      9356      9354      9357      9360
      9357      9360      9363      9364      9357      9360      9363      9365
      9357      9360      9363      9366      9358      9357      9360      9361
      9358      9357      9360      9362      9358      9357      9360      9363
      9359      9357      9360      9361      9359      9357      9360      9362
      9359      9357      9360      9363      9360      9363      9366      9367
      9360      9363      9366      9368      9360      9363      9366      9369
      9361      9360      9363      9364      9361      9360      9363      9365
      9361      9360      9363      9366      9362      9360      9363      9364
      9362      9360      9363      9365      9362      9360      9363      9366
      9363      9366      9369      9370      9363      9366      9369      9371
      9363      9366      9369      9372      9364      9363      9366      9367
      9364      9363      9366      9368      9364      9363      9366      9369
      9365      9363      9366      9367      9365      9363      9366      9368
      9365      9363      9366      9369      9366      9369      9372      9373
      9366      9369      9372      9374      9366      9369      9372      9375
      9367      9366      9369      9370      9367      9366      9369      9371
      9367      9366      9369      9372      9368      9366      9369      9370
      9368      9366      9369      9371      9368      9366      9369      9372
      9370      9369      9372      9373      9370      9369      9372      9374
      9370      9369      9372      9375      9371      9369      9372      9373
      9371      9369      9372      9374      9371      9369      9372      9375
      9376      9379      9382      9383      9376      9379      9382      9384
      9376      9379      9382      9385      9377      9376      9379      9380
      9377      9376      9379      9381      9377      9376      9379      9382
      9378      9376      9379      9380      9378      9376      9379      9381
      9378      9376      9379      9382      9379      9382      9385      9386
      9379      9382      9385      9387      9379      9382      9385      9388
      9380      9379      9382      9383      9380      9379      9382      9384
      9380      9379      9382      9385      9381      9379      9382      9383
      9381      9379      9382      9384      9381      9379      9382      9385
      9382      9385      9388      9389      9382      9385      9388      9390
      9382      9385      9388      9391      9383      9382      9385      9386
      9383      9382      9385      9387      9383      9382      9385      9388
      9384      9382      9385      9386      9384      9382      9385      9387
      9384      9382      9385      9388      9385      9388      9391      9392
      9385      9388      9391      9393      9385      9388      9391      9394
      9386      9385      9388      9389      9386      9385      9388      9390
      9386      9385      9388      9391      9387      9385      9388      9389
      9387      9385      9388      9390      9387      9385      9388      9391
      9388      9391      9394      9395      9388      9391      9394      9396
      9388      9391      9394      9397      9389      9388      9391      9392
      9389      9388      9391      9393      9389      9388      9391      9394
      9390      9388      9391      9392      9390      9388      9391      9393
      9390      9388      9391      9394      9391      9394      9397      9398
      9391      9394      9397      9399      9391      9394      9397      9400
      9392      9391      9394      9395      9392      9391      9394      9396
      9392      9391      9394      9397      9393      9391      9394      9395
      9393      9391      9394      9396      9393      9391      9394      9397
      9394      9397      9400      9401      9394      9397      9400      9402
      9394      9397      9400      9403      9395      9394      9397      9398
      9395      9394      9397      9399      9395      9394      9397      9400
      9396      9394      9397      9398      9396      9394      9397      9399
      9396      9394      9397      9400      9397      9400      9403      9404
      9397      9400      9403      9405      9397      9400      9403      9406
      9398      9397      9400      9401      9398      9397      9400      9402
      9398      9397      9400      9403      9399      9397      9400      9401
      9399      9397      9400      9402      9399      9397      9400      9403
      9400      9403      9406      9407      9400      9403      9406      9408
      9400      9403      9406      9409      9401      9400      9403      9404
      9401      9400      9403      9405      9401      9400      9403      9406
      9402      9400      9403      9404      9402      9400      9403      9405
      9402      9400      9403      9406      9403      9406      9409      9410
      9403      9406      9409      9411      9403      9406      9409      9412
      9404      9403      9406      9407      9404      9403      9406      9408
      9404      9403      9406      9409      9405      9403      9406      9407
      9405      9403      9406      9408      9405      9403      9406      9409
      9406      9409      9412      9413      9406      9409      9412      9414
      9406      9409      9412      9415      9407      9406      9409      9410
      9407      9406      9409      9411      9407      9406      9409      9412
      9408      9406      9409      9410      9408      9406      9409      9411
      9408      9406      9409      9412      9409      9412      9415      9416
      9409      9412      9415      9417      9409      9412      9415      9418
      9410      9409      9412      9413      9410      9409      9412      9414
      9410      9409      9412      9415      9411      9409      9412      9413
      9411      9409      9412      9414      9411      9409      9412      9415
      9413      9412      9415      9416      9413      9412      9415      9417
      9413      9412      9415      9418      9414      9412      9415      9416
      9414      9412      9415      9417      9414      9412      9415      9418
      9419      9420      9435      9436      9419      9420      9435      9437
      9419      9420      9435      9441      9420      9419      9423      9424
      9420      9419      9423      9425      9420      9419      9423      9426
      9420      9419      9427      9428      9420      9419      9427      9429
      9420      9419      9427      9430      9420      9419      9431      9432
      9420      9419      9431      9433      9420      9419      9431      9434
      9420      9435      9441      9438      9421      9420      9419      9423
      9421      9420      9419      9427      9421      9420      9419      9431
      9421      9420      9435      9436      9421      9420      9435      9437
      9421      9420      9435      9441      9422      9420      9419      9423
      9422      9420      9419      9427      9422      9420      9419      9431
      9422      9420      9435      9436      9422      9420      9435      9437
      9422      9420      9435      9441      9423      9419      9420      9435
      9423      9419      9427      9428      9423      9419      9427      9429
      9423      9419      9427      9430      9423      9419      9431      9432
      9423      9419      9431      9433      9423      9419      9431      9434
      9424      9423      9419      9427      9424      9423      9419      9431
      9425      9423      9419      9427      9425      9423      9419      9431
      9426      9423      9419      9427      9426      9423      9419      9431
      9427      9419      9420      9435      9427      9419      9431      9432
      9427      9419      9431      9433      9427      9419      9431      9434
      9428      9427      9419      9431      9429      9427      9419      9431
      9430      9427      9419      9431      9431      9419      9420      9435
      9435      9441      9438      9439      9435      9441      9438      9440
      9435      9441      9438      9442      9436      9435      9441      9438
      9437      9435      9441      9438      9438      9442      9443      9444
      9438      9442      9443      9445      9438      9442      9443      9446
      9439      9438      9442      9443      9440      9438      9442      9443
      9441      9438      9442      9443      9442      9443      9446      9447
      9442      9443      9446      9448      9442      9443      9446      9454
      9443      9446      9448      9449      9443      9446      9454      9455
      9443      9446      9454      9456      9443      9446      9454      9457
      9444      9443      9446      9447      9444      9443      9446      9448
      9444      9443      9446      9454      9445      9443      9446      9447
      9445      9443      9446      9448      9445      9443      9446      9454
      9446      9448      9449      9450      9446      9448      9449      9451
      9446      9454      9457      9458      9447      9446      9448      9449
      9447      9446      9454      9455      9447      9446      9454      9456
      9447      9446      9454      9457      9448      9446      9454      9455
      9448      9446      9454      9456      9448      9446      9454      9457
      9448      9449      9451      9452      9448      9449      9451      9453
      9448      9449      9451      9463      9449      9448      9446      9454
      9449      9451      9463      9464      9449      9451      9463      9465
      9449      9451      9463      9466      9450      9449      9451      9452
      9450      9449      9451      9453      9450      9449      9451      9463
      9451      9463      9466      9467      9451      9463      9466      9468
      9451      9463      9466      9469      9452      9451      9463      9464
      9452      9451      9463      9465      9452      9451      9463      9466
      9453      9451      9463      9464      9453      9451      9463      9465
      9453      9451      9463      9466      9454      9457      9458      9459
      9454      9457      9458      9460      9455      9454      9457      9458
      9456      9454      9457      9458      9457      9458      9460      9461
      9457      9458      9460      9462      9457      9458      9460      9510
      9458      9460      9510      9511      9458      9460      9510      9512
      9458      9460      9510      9513      9459      9458      9460      9461
      9459      9458      9460      9462      9459      9458      9460      9510
      9460      9510      9513      9514      9460      9510      9513      9515
      9460      9510      9513      9516      9461      9460      9510      9511
      9461      9460      9510      9512      9461      9460      9510      9513
      9462      9460      9510      9511      9462      9460      9510      9512
      9462      9460      9510      9513      9463      9466      9469      9470
      9463      9466      9469      9471      9463      9466      9469      9472
      9464      9463      9466      9467      9464      9463      9466      9468
      9464      9463      9466      9469      9465      9463      9466      9467
      9465      9463      9466      9468      9465      9463      9466      9469
      9466      9469      9472      9473      9466      9469      9472      9474
      9466      9469      9472      9475      9467      9466      9469      9470
      9467      9466      9469      9471      9467      9466      9469      9472
      9468      9466      9469      9470      9468      9466      9469      9471
      9468      9466      9469      9472      9469      9472      9475      9476
      9469      9472      9475      9477      9469      9472      9475      9478
      9470      9469      9472      9473      9470      9469      9472      9474
      9470      9469      9472      9475      9471      9469      9472      9473
      9471      9469      9472      9474      9471      9469      9472      9475
      9472      9475      9478      9479      9472      9475      9478      9480
      9472      9475      9478      9481      9473      9472      9475      9476
      9473      9472      9475      9477      9473      9472      9475      9478
      9474      9472      9475      9476      9474      9472      9475      9477
      9474      9472      9475      9478      9475      9478      9481      9482
      9475      9478      9481      9483      9476      9475      9478      9479
      9476      9475      9478      9480      9476      9475      9478      9481
      9477      9475      9478      9479      9477      9475      9478      9480
      9477      9475      9478      9481      9478      9481      9483      9484
      9478      9481      9483      9485      9479      9478      9481      9482
      9479      9478      9481      9483      9480      9478      9481      9482
      9480      9478      9481      9483      9481      9483      9485      9486
      9481      9483      9485      9487      9481      9483      9485      9488
      9482      9481      9483      9484      9482      9481      9483      9485
      9483      9485      9488      9489      9483      9485      9488      9490
      9483      9485      9488      9491      9484      9483      9485      9486
      9484      9483      9485      9487      9484      9483      9485      9488
      9485      9488      9491      9492      9485      9488      9491      9493
      9485      9488      9491      9494      9486      9485      9488      9489
      9486      9485      9488      9490      9486      9485      9488      9491
      9487      9485      9488      9489      9487      9485      9488      9490
      9487      9485      9488      9491      9488      9491      9494      9495
      9488      9491      9494      9496      9488      9491      9494      9497
      9489      9488      9491      9492      9489      9488      9491      9493
      9489      9488      9491      9494      9490      9488      9491      9492
      9490      9488      9491      9493      9490      9488      9491      9494
      9491      9494      9497      9498      9491      9494      9497      9499
      9491      9494      9497      9500      9492      9491      9494      9495
      9492      9491      9494      9496      9492      9491      9494      9497
      9493      9491      9494      9495      9493      9491      9494      9496
      9493      9491      9494      9497      9494      9497      9500      9501
      9494      9497      9500      9502      9494      9497      9500      9503
      9495      9494      9497      9498      9495      9494      9497      9499
      9495      9494      9497      9500      9496      9494      9497      9498
      9496      9494      9497      9499      9496      9494      9497      9500
      9497      9500      9503      9504      9497      9500      9503      9505
      9497      9500      9503      9506      9498      9497      9500      9501
      9498      9497      9500      9502      9498      9497      9500      9503
      9499      9497      9500      9501      9499      9497      9500      9502
      9499      9497      9500      9503      9500      9503      9506      9507
      9500      9503      9506      9508      9500      9503      9506      9509
      9501      9500      9503      9504      9501      9500      9503      9505
      9501      9500      9503      9506      9502      9500      9503      9504
      9502      9500      9503      9505      9502      9500      9503      9506
      9504      9503      9506      9507      9504      9503      9506      9508
      9504      9503      9506      9509      9505      9503      9506      9507
      9505      9503      9506      9508      9505      9503      9506      9509
      9510      9513      9516      9517      9510      9513      9516      9518
      9510      9513      9516      9519      9511      9510      9513      9514
      9511      9510      9513      9515      9511      9510      9513      9516
      9512      9510      9513      9514      9512      9510      9513      9515
      9512      9510      9513      9516      9513      9516      9519      9520
      9513      9516      9519      9521      9513      9516      9519      9522
      9514      9513      9516      9517      9514      9513      9516      9518
      9514      9513      9516      9519      9515      9513      9516      9517
      9515      9513      9516      9518      9515      9513      9516      9519
      9516      9519      9522      9523      9516      9519      9522      9524
      9516      9519      9522      9525      9517      9516      9519      9520
      9517      9516      9519      9521      9517      9516      9519      9522
      9518      9516      9519      9520      9518      9516      9519      9521
      9518      9516      9519      9522      9519      9522      9525      9526
      9519      9522      9525      9527      9519      9522      9525      9528
      9520      9519      9522      9523      9520      9519      9522      9524
      9520      9519      9522      9525      9521      9519      9522      9523
      9521      9519      9522      9524      9521      9519      9522      9525
      9522      9525      9528      9529      9522      9525      9528      9530
      9522      9525      9528      9531      9523      9522      9525      9526
      9523      9522      9525      9527      9523      9522      9525      9528
      9524      9522      9525      9526      9524      9522      9525      9527
      9524      9522      9525      9528      9525      9528      9531      9532
      9525      9528      9531      9533      9525      9528      9531      9534
      9526      9525      9528      9529      9526      9525      9528      9530
      9526      9525      9528      9531      9527      9525      9528      9529
      9527      9525      9528      9530      9527      9525      9528      9531
      9528      9531      9534      9535      9528      9531      9534      9536
      9528      9531      9534      9537      9529      9528      9531      9532
      9529      9528      9531      9533      9529      9528      9531      9534
      9530      9528      9531      9532      9530      9528      9531      9533
      9530      9528      9531      9534      9531      9534      9537      9538
      9531      9534      9537      9539      9531      9534      9537      9540
      9532      9531      9534      9535      9532      9531      9534      9536
      9532      9531      9534      9537      9533      9531      9534      9535
      9533      9531      9534      9536      9533      9531      9534      9537
      9534      9537      9540      9541      9534      9537      9540      9542
      9534      9537      9540      9543      9535      9534      9537      9538
      9535      9534      9537      9539      9535      9534      9537      9540
      9536      9534      9537      9538      9536      9534      9537      9539
      9536      9534      9537      9540      9537      9540      9543      9544
      9537      9540      9543      9545      9537      9540      9543      9546
      9538      9537      9540      9541      9538      9537      9540      9542
      9538      9537      9540      9543      9539      9537      9540      9541
      9539      9537      9540      9542      9539      9537      9540      9543
      9540      9543      9546      9547      9540      9543      9546      9548
      9540      9543      9546      9549      9541      9540      9543      9544
      9541      9540      9543      9545      9541      9540      9543      9546
      9542      9540      9543      9544      9542      9540      9543      9545
      9542      9540      9543      9546      9543      9546      9549      9550
      9543      9546      9549      9551      9543      9546      9549      9552
      9544      9543      9546      9547      9544      9543      9546      9548
      9544      9543      9546      9549      9545      9543      9546      9547
      9545      9543      9546      9548      9545      9543      9546      9549
      9547      9546      9549      9550      9547      9546      9549      9551
      9547      9546      9549      9552      9548      9546      9549      9550
      9548      9546      9549      9551      9548      9546      9549      9552
      9553      9557      9559      9560      9553      9557      9559      9561
      9553      9557      9562      9563      9553      9557      9562      9564
      9553      9557      9562      9568      9554      9553      9557      9558
      9554      9553      9557      9559      9554      9553      9557      9562
      9555      9553      9557      9558      9555      9553      9557      9559
      9555      9553      9557      9562      9556      9553      9557      9558
      9556      9553      9557      9559      9556      9553      9557      9562
      9557      9562      9568      9565      9558      9557      9559      9560
      9558      9557      9559      9561      9558      9557      9562      9563
      9558      9557      9562      9564      9558      9557      9562      9568
      9559      9557      9562      9563      9559      9557      9562      9564
      9559      9557      9562      9568      9560      9559      9557      9562
      9561      9559      9557      9562      9562      9568      9565      9566
      9562      9568      9565      9567      9562      9568      9565      9569
      9563      9562      9568      9565      9564      9562      9568      9565
      9565      9569      9570      9571      9565      9569      9570      9572
      9565      9569      9570      9573      9566      9565      9569      9570
      9567      9565      9569      9570      9568      9565      9569      9570
      9569      9570      9573      9574      9569      9570      9573      9575
      9569      9570      9573      9581      9570      9573      9575      9576
      9570      9573      9581      9582      9570      9573      9581      9583
      9570      9573      9581      9584      9571      9570      9573      9574
      9571      9570      9573      9575      9571      9570      9573      9581
      9572      9570      9573      9574      9572      9570      9573      9575
      9572      9570      9573      9581      9573      9575      9576      9577
      9573      9575      9576      9578      9573      9581      9584      9585
      9574      9573      9575      9576      9574      9573      9581      9582
      9574      9573      9581      9583      9574      9573      9581      9584
      9575      9573      9581      9582      9575      9573      9581      9583
      9575      9573      9581      9584      9575      9576      9578      9579
      9575      9576      9578      9580      9575      9576      9578      9590
      9576      9575      9573      9581      9576      9578      9590      9591
      9576      9578      9590      9592      9576      9578      9590      9593
      9577      9576      9578      9579      9577      9576      9578      9580
      9577      9576      9578      9590      9578      9590      9593      9594
      9578      9590      9593      9595      9578      9590      9593      9596
      9579      9578      9590      9591      9579      9578      9590      9592
      9579      9578      9590      9593      9580      9578      9590      9591
      9580      9578      9590      9592      9580      9578      9590      9593
      9581      9584      9585      9586      9581      9584      9585      9587
      9582      9581      9584      9585      9583      9581      9584      9585
      9584      9585      9587      9588      9584      9585      9587      9589
      9584      9585      9587      9637      9585      9587      9637      9638
      9585      9587      9637      9639      9585      9587      9637      9640
      9586      9585      9587      9588      9586      9585      9587      9589
      9586      9585      9587      9637      9587      9637      9640      9641
      9587      9637      9640      9642      9587      9637      9640      9643
      9588      9587      9637      9638      9588      9587      9637      9639
      9588      9587      9637      9640      9589      9587      9637      9638
      9589      9587      9637      9639      9589      9587      9637      9640
      9590      9593      9596      9597      9590      9593      9596      9598
      9590      9593      9596      9599      9591      9590      9593      9594
      9591      9590      9593      9595      9591      9590      9593      9596
      9592      9590      9593      9594      9592      9590      9593      9595
      9592      9590      9593      9596      9593      9596      9599      9600
      9593      9596      9599      9601      9593      9596      9599      9602
      9594      9593      9596      9597      9594      9593      9596      9598
      9594      9593      9596      9599      9595      9593      9596      9597
      9595      9593      9596      9598      9595      9593      9596      9599
      9596      9599      9602      9603      9596      9599      9602      9604
      9596      9599      9602      9605      9597      9596      9599      9600
      9597      9596      9599      9601      9597      9596      9599      9602
      9598      9596      9599      9600      9598      9596      9599      9601
      9598      9596      9599      9602      9599      9602      9605      9606
      9599      9602      9605      9607      9599      9602      9605      9608
      9600      9599      9602      9603      9600      9599      9602      9604
      9600      9599      9602      9605      9601      9599      9602      9603
      9601      9599      9602      9604      9601      9599      9602      9605
      9602      9605      9608      9609      9602      9605      9608      9610
      9603      9602      9605      9606      9603      9602      9605      9607
      9603      9602      9605      9608      9604      9602      9605      9606
      9604      9602      9605      9607      9604      9602      9605      9608
      9605      9608      9610      9611      9605      9608      9610      9612
      9606      9605      9608      9609      9606      9605      9608      9610
      9607      9605      9608      9609      9607      9605      9608      9610
      9608      9610      9612      9613      9608      9610      9612      9614
      9608      9610      9612      9615      9609      9608      9610      9611
      9609      9608      9610      9612      9610      9612      9615      9616
      9610      9612      9615      9617      9610      9612      9615      9618
      9611      9610      9612      9613      9611      9610      9612      9614
      9611      9610      9612      9615      9612      9615      9618      9619
      9612      9615      9618      9620      9612      9615      9618      9621
      9613      9612      9615      9616      9613      9612      9615      9617
      9613      9612      9615      9618      9614      9612      9615      9616
      9614      9612      9615      9617      9614      9612      9615      9618
      9615      9618      9621      9622      9615      9618      9621      9623
      9615      9618      9621      9624      9616      9615      9618      9619
      9616      9615      9618      9620      9616      9615      9618      9621
      9617      9615      9618      9619      9617      9615      9618      9620
      9617      9615      9618      9621      9618      9621      9624      9625
      9618      9621      9624      9626      9618      9621      9624      9627
      9619      9618      9621      9622      9619      9618      9621      9623
      9619      9618      9621      9624      9620      9618      9621      9622
      9620      9618      9621      9623      9620      9618      9621      9624
      9621      9624      9627      9628      9621      9624      9627      9629
      9621      9624      9627      9630      9622      9621      9624      9625
      9622      9621      9624      9626      9622      9621      9624      9627
      9623      9621      9624      9625      9623      9621      9624      9626
      9623      9621      9624      9627      9624      9627      9630      9631
      9624      9627      9630      9632      9624      9627      9630      9633
      9625      9624      9627      9628      9625      9624      9627      9629
      9625      9624      9627      9630      9626      9624      9627      9628
      9626      9624      9627      9629      9626      9624      9627      9630
      9627      9630      9633      9634      9627      9630      9633      9635
      9627      9630      9633      9636      9628      9627      9630      9631
      9628      9627      9630      9632      9628      9627      9630      9633
      9629      9627      9630      9631      9629      9627      9630      9632
      9629      9627      9630      9633      9631      9630      9633      9634
      9631      9630      9633      9635      9631      9630      9633      9636
      9632      9630      9633      9634      9632      9630      9633      9635
      9632      9630      9633      9636      9637      9640      9643      9644
      9637      9640      9643      9645      9637      9640      9643      9646
      9638      9637      9640      9641      9638      9637      9640      9642
      9638      9637      9640      9643      9639      9637      9640      9641
      9639      9637      9640      9642      9639      9637      9640      9643
      9640      9643      9646      9647      9640      9643      9646      9648
      9640      9643      9646      9649      9641      9640      9643      9644
      9641      9640      9643      9645      9641      9640      9643      9646
      9642      9640      9643      9644      9642      9640      9643      9645
      9642      9640      9643      9646      9643      9646      9649      9650
      9643      9646      9649      9651      9643      9646      9649      9652
      9644      9643      9646      9647      9644      9643      9646      9648
      9644      9643      9646      9649      9645      9643      9646      9647
      9645      9643      9646      9648      9645      9643      9646      9649
      9646      9649      9652      9653      9646      9649      9652      9654
      9646      9649      9652      9655      9647      9646      9649      9650
      9647      9646      9649      9651      9647      9646      9649      9652
      9648      9646      9649      9650      9648      9646      9649      9651
      9648      9646      9649      9652      9649      9652      9655      9656
      9649      9652      9655      9657      9649      9652      9655      9658
      9650      9649      9652      9653      9650      9649      9652      9654
      9650      9649      9652      9655      9651      9649      9652      9653
      9651      9649      9652      9654      9651      9649      9652      9655
      9652      9655      9658      9659      9652      9655      9658      9660
      9652      9655      9658      9661      9653      9652      9655      9656
      9653      9652      9655      9657      9653      9652      9655      9658
      9654      9652      9655      9656      9654      9652      9655      9657
      9654      9652      9655      9658      9655      9658      9661      9662
      9655      9658      9661      9663      9655      9658      9661      9664
      9656      9655      9658      9659      9656      9655      9658      9660
      9656      9655      9658      9661      9657      9655      9658      9659
      9657      9655      9658      9660      9657      9655      9658      9661
      9658      9661      9664      9665      9658      9661      9664      9666
      9658      9661      9664      9667      9659      9658      9661      9662
      9659      9658      9661      9663      9659      9658      9661      9664
      9660      9658      9661      9662      9660      9658      9661      9663
      9660      9658      9661      9664      9661      9664      9667      9668
      9661      9664      9667      9669      9661      9664      9667      9670
      9662      9661      9664      9665      9662      9661      9664      9666
      9662      9661      9664      9667      9663      9661      9664      9665
      9663      9661      9664      9666      9663      9661      9664      9667
      9664      9667      9670      9671      9664      9667      9670      9672
      9664      9667      9670      9673      9665      9664      9667      9668
      9665      9664      9667      9669      9665      9664      9667      9670
      9666      9664      9667      9668      9666      9664      9667      9669
      9666      9664      9667      9670      9667      9670      9673      9674
      9667      9670      9673      9675      9667      9670      9673      9676
      9668      9667      9670      9671      9668      9667      9670      9672
      9668      9667      9670      9673      9669      9667      9670      9671
      9669      9667      9670      9672      9669      9667      9670      9673
      9670      9673      9676      9677      9670      9673      9676      9678
      9670      9673      9676      9679      9671      9670      9673      9674
      9671      9670      9673      9675      9671      9670      9673      9676
      9672      9670      9673      9674      9672      9670      9673      9675
      9672      9670      9673      9676      9674      9673      9676      9677
      9674      9673      9676      9678      9674      9673      9676      9679
      9675      9673      9676      9677      9675      9673      9676      9678
      9675      9673      9676      9679      9680      9681      9696      9697
      9680      9681      9696      9698      9680      9681      9696      9702
      9681      9680      9684      9685      9681      9680      9684      9686
      9681      9680      9684      9687      9681      9680      9688      9689
      9681      9680      9688      9690      9681      9680      9688      9691
      9681      9680      9692      9693      9681      9680      9692      9694
      9681      9680      9692      9695      9681      9696      9702      9699
      9682      9681      9680      9684      9682      9681      9680      9688
      9682      9681      9680      9692      9682      9681      9696      9697
      9682      9681      9696      9698      9682      9681      9696      9702
      9683      9681      9680      9684      9683      9681      9680      9688
      9683      9681      9680      9692      9683      9681      9696      9697
      9683      9681      9696      9698      9683      9681      9696      9702
      9684      9680      9681      9696      9684      9680      9688      9689
      9684      9680      9688      9690      9684      9680      9688      9691
      9684      9680      9692      9693      9684      9680      9692      9694
      9684      9680      9692      9695      9685      9684      9680      9688
      9685      9684      9680      9692      9686      9684      9680      9688
      9686      9684      9680      9692      9687      9684      9680      9688
      9687      9684      9680      9692      9688      9680      9681      9696
      9688      9680      9692      9693      9688      9680      9692      9694
      9688      9680      9692      9695      9689      9688      9680      9692
      9690      9688      9680      9692      9691      9688      9680      9692
      9692      9680      9681      9696      9696      9702      9699      9700
      9696      9702      9699      9701      9696      9702      9699      9703
      9697      9696      9702      9699      9698      9696      9702      9699
      9699      9703      9704      9705      9699      9703      9704      9706
      9699      9703      9704      9707      9700      9699      9703      9704
      9701      9699      9703      9704      9702      9699      9703      9704
      9703      9704      9707      9708      9703      9704      9707      9709
      9703      9704      9707      9715      9704      9707      9709      9710
      9704      9707      9715      9716      9704      9707      9715      9717
      9704      9707      9715      9718      9705      9704      9707      9708
      9705      9704      9707      9709      9705      9704      9707      9715
      9706      9704      9707      9708      9706      9704      9707      9709
      9706      9704      9707      9715      9707      9709      9710      9711
      9707      9709      9710      9712      9707      9715      9718      9719
      9708      9707      9709      9710      9708      9707      9715      9716
      9708      9707      9715      9717      9708      9707      9715      9718
      9709      9707      9715      9716      9709      9707      9715      9717
      9709      9707      9715      9718      9709      9710      9712      9713
      9709      9710      9712      9714      9709      9710      9712      9724
      9710      9709      9707      9715      9710      9712      9724      9725
      9710      9712      9724      9726      9710      9712      9724      9727
      9711      9710      9712      9713      9711      9710      9712      9714
      9711      9710      9712      9724      9712      9724      9727      9728
      9712      9724      9727      9729      9712      9724      9727      9730
      9713      9712      9724      9725      9713      9712      9724      9726
      9713      9712      9724      9727      9714      9712      9724      9725
      9714      9712      9724      9726      9714      9712      9724      9727
      9715      9718      9719      9720      9715      9718      9719      9721
      9716      9715      9718      9719      9717      9715      9718      9719
      9718      9719      9721      9722      9718      9719      9721      9723
      9718      9719      9721      9771      9719      9721      9771      9772
      9719      9721      9771      9773      9719      9721      9771      9774
      9720      9719      9721      9722      9720      9719      9721      9723
      9720      9719      9721      9771      9721      9771      9774      9775
      9721      9771      9774      9776      9721      9771      9774      9777
      9722      9721      9771      9772      9722      9721      9771      9773
      9722      9721      9771      9774      9723      9721      9771      9772
      9723      9721      9771      9773      9723      9721      9771      9774
      9724      9727      9730      9731      9724      9727      9730      9732
      9724      9727      9730      9733      9725      9724      9727      9728
      9725      9724      9727      9729      9725      9724      9727      9730
      9726      9724      9727      9728      9726      9724      9727      9729
      9726      9724      9727      9730      9727      9730      9733      9734
      9727      9730      9733      9735      9727      9730      9733      9736
      9728      9727      9730      9731      9728      9727      9730      9732
      9728      9727      9730      9733      9729      9727      9730      9731
      9729      9727      9730      9732      9729      9727      9730      9733
      9730      9733      9736      9737      9730      9733      9736      9738
      9730      9733      9736      9739      9731      9730      9733      9734
      9731      9730      9733      9735      9731      9730      9733      9736
      9732      9730      9733      9734      9732      9730      9733      9735
      9732      9730      9733      9736      9733      9736      9739      9740
      9733      9736      9739      9741      9733      9736      9739      9742
      9734      9733      9736      9737      9734      9733      9736      9738
      9734      9733      9736      9739      9735      9733      9736      9737
      9735      9733      9736      9738      9735      9733      9736      9739
      9736      9739      9742      9743      9736      9739      9742      9744
      9737      9736      9739      9740      9737      9736      9739      9741
      9737      9736      9739      9742      9738      9736      9739      9740
      9738      9736      9739      9741      9738      9736      9739      9742
      9739      9742      9744      9745      9739      9742      9744      9746
      9740      9739      9742      9743      9740      9739      9742      9744
      9741      9739      9742      9743      9741      9739      9742      9744
      9742      9744      9746      9747      9742      9744      9746      9748
      9742      9744      9746      9749      9743      9742      9744      9745
      9743      9742      9744      9746      9744      9746      9749      9750
      9744      9746      9749      9751      9744      9746      9749      9752
      9745      9744      9746      9747      9745      9744      9746      9748
      9745      9744      9746      9749      9746      9749      9752      9753
      9746      9749      9752      9754      9746      9749      9752      9755
      9747      9746      9749      9750      9747      9746      9749      9751
      9747      9746      9749      9752      9748      9746      9749      9750
      9748      9746      9749      9751      9748      9746      9749      9752
      9749      9752      9755      9756      9749      9752      9755      9757
      9749      9752      9755      9758      9750      9749      9752      9753
      9750      9749      9752      9754      9750      9749      9752      9755
      9751      9749      9752      9753      9751      9749      9752      9754
      9751      9749      9752      9755      9752      9755      9758      9759
      9752      9755      9758      9760      9752      9755      9758      9761
      9753      9752      9755      9756      9753      9752      9755      9757
      9753      9752      9755      9758      9754      9752      9755      9756
      9754      9752      9755      9757      9754      9752      9755      9758
      9755      9758      9761      9762      9755      9758      9761      9763
      9755      9758      9761      9764      9756      9755      9758      9759
      9756      9755      9758      9760      9756      9755      9758      9761
      9757      9755      9758      9759      9757      9755      9758      9760
      9757      9755      9758      9761      9758      9761      9764      9765
      9758      9761      9764      9766      9758      9761      9764      9767
      9759      9758      9761      9762      9759      9758      9761      9763
      9759      9758      9761      9764      9760      9758      9761      9762
      9760      9758      9761      9763      9760      9758      9761      9764
      9761      9764      9767      9768      9761      9764      9767      9769
      9761      9764      9767      9770      9762      9761      9764      9765
      9762      9761      9764      9766      9762      9761      9764      9767
      9763      9761      9764      9765      9763      9761      9764      9766
      9763      9761      9764      9767      9765      9764      9767      9768
      9765      9764      9767      9769      9765      9764      9767      9770
      9766      9764      9767      9768      9766      9764      9767      9769
      9766      9764      9767      9770      9771      9774      9777      9778
      9771      9774      9777      9779      9771      9774      9777      9780
      9772      9771      9774      9775      9772      9771      9774      9776
      9772      9771      9774      9777      9773      9771      9774      9775
      9773      9771      9774      9776      9773      9771      9774      9777
      9774      9777      9780      9781      9774      9777      9780      9782
      9774      9777      9780      9783      9775      9774      9777      9778
      9775      9774      9777      9779      9775      9774      9777      9780
      9776      9774      9777      9778      9776      9774      9777      9779
      9776      9774      9777      9780      9777      9780      9783      9784
      9777      9780      9783      9785      9777      9780      9783      9786
      9778      9777      9780      9781      9778      9777      9780      9782
      9778      9777      9780      9783      9779      9777      9780      9781
      9779      9777      9780      9782      9779      9777      9780      9783
      9780      9783      9786      9787      9780      9783      9786      9788
      9780      9783      9786      9789      9781      9780      9783      9784
      9781      9780      9783      9785      9781      9780      9783      9786
      9782      9780      9783      9784      9782      9780      9783      9785
      9782      9780      9783      9786      9783      9786      9789      9790
      9783      9786      9789      9791      9783      9786      9789      9792
      9784      9783      9786      9787      9784      9783      9786      9788
      9784      9783      9786      9789      9785      9783      9786      9787
      9785      9783      9786      9788      9785      9783      9786      9789
      9786      9789      9792      9793      9786      9789      9792      9794
      9786      9789      9792      9795      9787      9786      9789      9790
      9787      9786      9789      9791      9787      9786      9789      9792
      9788      9786      9789      9790      9788      9786      9789      9791
      9788      9786      9789      9792      9789      9792      9795      9796
      9789      9792      9795      9797      9789      9792      9795      9798
      9790      9789      9792      9793      9790      9789      9792      9794
      9790      9789      9792      9795      9791      9789      9792      9793
      9791      9789      9792      9794      9791      9789      9792      9795
      9792      9795      9798      9799      9792      9795      9798      9800
      9792      9795      9798      9801      9793      9792      9795      9796
      9793      9792      9795      9797      9793      9792      9795      9798
      9794      9792      9795      9796      9794      9792      9795      9797
      9794      9792      9795      9798      9795      9798      9801      9802
      9795      9798      9801      9803      9795      9798      9801      9804
      9796      9795      9798      9799      9796      9795      9798      9800
      9796      9795      9798      9801      9797      9795      9798      9799
      9797      9795      9798      9800      9797      9795      9798      9801
      9798      9801      9804      9805      9798      9801      9804      9806
      9798      9801      9804      9807      9799      9798      9801      9802
      9799      9798      9801      9803      9799      9798      9801      9804
      9800      9798      9801      9802      9800      9798      9801      9803
      9800      9798      9801      9804      9801      9804      9807      9808
      9801      9804      9807      9809      9801      9804      9807      9810
      9802      9801      9804      9805      9802      9801      9804      9806
      9802      9801      9804      9807      9803      9801      9804      9805
      9803      9801      9804      9806      9803      9801      9804      9807
      9804      9807      9810      9811      9804      9807      9810      9812
      9804      9807      9810      9813      9805      9804      9807      9808
      9805      9804      9807      9809      9805      9804      9807      9810
      9806      9804      9807      9808      9806      9804      9807      9809
      9806      9804      9807      9810      9808      9807      9810      9811
      9808      9807      9810      9812      9808      9807      9810      9813
      9809      9807      9810      9811      9809      9807      9810      9812
      9809      9807      9810      9813      9814      9815      9830      9831
      9814      9815      9830      9832      9814      9815      9830      9836
      9815      9814      9818      9819      9815      9814      9818      9820
      9815      9814      9818      9821      9815      9814      9822      9823
      9815      9814      9822      9824      9815      9814      9822      9825
      9815      9814      9826      9827      9815      9814      9826      9828
      9815      9814      9826      9829      9815      9830      9836      9833
      9816      9815      9814      9818      9816      9815      9814      9822
      9816      9815      9814      9826      9816      9815      9830      9831
      9816      9815      9830      9832      9816      9815      9830      9836
      9817      9815      9814      9818      9817      9815      9814      9822
      9817      9815      9814      9826      9817      9815      9830      9831
      9817      9815      9830      9832      9817      9815      9830      9836
      9818      9814      9815      9830      9818      9814      9822      9823
      9818      9814      9822      9824      9818      9814      9822      9825
      9818      9814      9826      9827      9818      9814      9826      9828
      9818      9814      9826      9829      9819      9818      9814      9822
      9819      9818      9814      9826      9820      9818      9814      9822
      9820      9818      9814      9826      9821      9818      9814      9822
      9821      9818      9814      9826      9822      9814      9815      9830
      9822      9814      9826      9827      9822      9814      9826      9828
      9822      9814      9826      9829      9823      9822      9814      9826
      9824      9822      9814      9826      9825      9822      9814      9826
      9826      9814      9815      9830      9830      9836      9833      9834
      9830      9836      9833      9835      9830      9836      9833      9837
      9831      9830      9836      9833      9832      9830      9836      9833
      9833      9837      9838      9839      9833      9837      9838      9840
      9833      9837      9838      9841      9834      9833      9837      9838
      9835      9833      9837      9838      9836      9833      9837      9838
      9837      9838      9841      9842      9837      9838      9841      9843
      9837      9838      9841      9849      9838      9841      9843      9844
      9838      9841      9849      9850      9838      9841      9849      9851
      9838      9841      9849      9852      9839      9838      9841      9842
      9839      9838      9841      9843      9839      9838      9841      9849
      9840      9838      9841      9842      9840      9838      9841      9843
      9840      9838      9841      9849      9841      9843      9844      9845
      9841      9843      9844      9846      9841      9849      9852      9853
      9842      9841      9843      9844      9842      9841      9849      9850
      9842      9841      9849      9851      9842      9841      9849      9852
      9843      9841      9849      9850      9843      9841      9849      9851
      9843      9841      9849      9852      9843      9844      9846      9847
      9843      9844      9846      9848      9843      9844      9846      9858
      9844      9843      9841      9849      9844      9846      9858      9859
      9844      9846      9858      9860      9844      9846      9858      9861
      9845      9844      9846      9847      9845      9844      9846      9848
      9845      9844      9846      9858      9846      9858      9861      9862
      9846      9858      9861      9863      9846      9858      9861      9864
      9847      9846      9858      9859      9847      9846      9858      9860
      9847      9846      9858      9861      9848      9846      9858      9859
      9848      9846      9858      9860      9848      9846      9858      9861
      9849      9852      9853      9854      9849      9852      9853      9855
      9850      9849      9852      9853      9851      9849      9852      9853
      9852      9853      9855      9856      9852      9853      9855      9857
      9852      9853      9855      9905      9853      9855      9905      9906
      9853      9855      9905      9907      9853      9855      9905      9908
      9854      9853      9855      9856      9854      9853      9855      9857
      9854      9853      9855      9905      9855      9905      9908      9909
      9855      9905      9908      9910      9855      9905      9908      9911
      9856      9855      9905      9906      9856      9855      9905      9907
      9856      9855      9905      9908      9857      9855      9905      9906
      9857      9855      9905      9907      9857      9855      9905      9908
      9858      9861      9864      9865      9858      9861      9864      9866
      9858      9861      9864      9867      9859      9858      9861      9862
      9859      9858      9861      9863      9859      9858      9861      9864
      9860      9858      9861      9862      9860      9858      9861      9863
      9860      9858      9861      9864      9861      9864      9867      9868
      9861      9864      9867      9869      9861      9864      9867      9870
      9862      9861      9864      9865      9862      9861      9864      9866
      9862      9861      9864      9867      9863      9861      9864      9865
      9863      9861      9864      9866      9863      9861      9864      9867
      9864      9867      9870      9871      9864      9867      9870      9872
      9864      9867      9870      9873      9865      9864      9867      9868
      9865      9864      9867      9869      9865      9864      9867      9870
      9866      9864      9867      9868      9866      9864      9867      9869
      9866      9864      9867      9870      9867      9870      9873      9874
      9867      9870      9873      9875      9867      9870      9873      9876
      9868      9867      9870      9871      9868      9867      9870      9872
      9868      9867      9870      9873      9869      9867      9870      9871
      9869      9867      9870      9872      9869      9867      9870      9873
      9870      9873      9876      9877      9870      9873      9876      9878
      9871      9870      9873      9874      9871      9870      9873      9875
      9871      9870      9873      9876      9872      9870      9873      9874
      9872      9870      9873      9875      9872      9870      9873      9876
      9873      9876      9878      9879      9873      9876      9878      9880
      9874      9873      9876      9877      9874      9873      9876      9878
      9875      9873      9876      9877      9875      9873      9876      9878
      9876      9878      9880      9881      9876      9878      9880      9882
      9876      9878      9880      9883      9877      9876      9878      9879
      9877      9876      9878      9880      9878      9880      9883      9884
      9878      9880      9883      9885      9878      9880      9883      9886
      9879      9878      9880      9881      9879      9878      9880      9882
      9879      9878      9880      9883      9880      9883      9886      9887
      9880      9883      9886      9888      9880      9883      9886      9889
      9881      9880      9883      9884      9881      9880      9883      9885
      9881      9880      9883      9886      9882      9880      9883      9884
      9882      9880      9883      9885      9882      9880      9883      9886
      9883      9886      9889      9890      9883      9886      9889      9891
      9883      9886      9889      9892      9884      9883      9886      9887
      9884      9883      9886      9888      9884      9883      9886      9889
      9885      9883      9886      9887      9885      9883      9886      9888
      9885      9883      9886      9889      9886      9889      9892      9893
      9886      9889      9892      9894      9886      9889      9892      9895
      9887      9886      9889      9890      9887      9886      9889      9891
      9887      9886      9889      9892      9888      9886      9889      9890
      9888      9886      9889      9891      9888      9886      9889      9892
      9889      9892      9895      9896      9889      9892      9895      9897
      9889      9892      9895      9898      9890      9889      9892      9893
      9890      9889      9892      9894      9890      9889      9892      9895
      9891      9889      9892      9893      9891      9889      9892      9894
      9891      9889      9892      9895      9892      9895      9898      9899
      9892      9895      9898      9900      9892      9895      9898      9901
      9893      9892      9895      9896      9893      9892      9895      9897
      9893      9892      9895      9898      9894      9892      9895      9896
      9894      9892      9895      9897      9894      9892      9895      9898
      9895      9898      9901      9902      9895      9898      9901      9903
      9895      9898      9901      9904      9896      9895      9898      9899
      9896      9895      9898      9900      9896      9895      9898      9901
      9897      9895      9898      9899      9897      9895      9898      9900
      9897      9895      9898      9901      9899      9898      9901      9902
      9899      9898      9901      9903      9899      9898      9901      9904
      9900      9898      9901      9902      9900      9898      9901      9903
      9900      9898      9901      9904      9905      9908      9911      9912
      9905      9908      9911      9913      9905      9908      9911      9914
      9906      9905      9908      9909      9906      9905      9908      9910
      9906      9905      9908      9911      9907      9905      9908      9909
      9907      9905      9908      9910      9907      9905      9908      9911
      9908      9911      9914      9915      9908      9911      9914      9916
      9908      9911      9914      9917      9909      9908      9911      9912
      9909      9908      9911      9913      9909      9908      9911      9914
      9910      9908      9911      9912      9910      9908      9911      9913
      9910      9908      9911      9914      9911      9914      9917      9918
      9911      9914      9917      9919      9911      9914      9917      9920
      9912      9911      9914      9915      9912      9911      9914      9916
      9912      9911      9914      9917      9913      9911      9914      9915
      9913      9911      9914      9916      9913      9911      9914      9917
      9914      9917      9920      9921      9914      9917      9920      9922
      9914      9917      9920      9923      9915      9914      9917      9918
      9915      9914      9917      9919      9915      9914      9917      9920
      9916      9914      9917      9918      9916      9914      9917      9919
      9916      9914      9917      9920      9917      9920      9923      9924
      9917      9920      9923      9925      9917      9920      9923      9926
      9918      9917      9920      9921      9918      9917      9920      9922
      9918      9917      9920      9923      9919      9917      9920      9921
      9919      9917      9920      9922      9919      9917      9920      9923
      9920      9923      9926      9927      9920      9923      9926      9928
      9920      9923      9926      9929      9921      9920      9923      9924
      9921      9920      9923      9925      9921      9920      9923      9926
      9922      9920      9923      9924      9922      9920      9923      9925
      9922      9920      9923      9926      9923      9926      9929      9930
      9923      9926      9929      9931      9923      9926      9929      9932
      9924      9923      9926      9927      9924      9923      9926      9928
      9924      9923      9926      9929      9925      9923      9926      9927
      9925      9923      9926      9928      9925      9923      9926      9929
      9926      9929      9932      9933      9926      9929      9932      9934
      9926      9929      9932      9935      9927      9926      9929      9930
      9927      9926      9929      9931      9927      9926      9929      9932
      9928      9926      9929      9930      9928      9926      9929      9931
      9928      9926      9929      9932      9929      9932      9935      9936
      9929      9932      9935      9937      9929      9932      9935      9938
      9930      9929      9932      9933      9930      9929      9932      9934
      9930      9929      9932      9935      9931      9929      9932      9933
      9931      9929      9932      9934      9931      9929      9932      9935
      9932      9935      9938      9939      9932      9935      9938      9940
      9932      9935      9938      9941      9933      9932      9935      9936
      9933      9932      9935      9937      9933      9932      9935      9938
      9934      9932      9935      9936      9934      9932      9935      9937
      9934      9932      9935      9938      9935      9938      9941      9942
      9935      9938      9941      9943      9935      9938      9941      9944
      9936      9935      9938      9939      9936      9935      9938      9940
      9936      9935      9938      9941      9937      9935      9938      9939
      9937      9935      9938      9940      9937      9935      9938      9941
      9938      9941      9944      9945      9938      9941      9944      9946
      9938      9941      9944      9947      9939      9938      9941      9942
      9939      9938      9941      9943      9939      9938      9941      9944
      9940      9938      9941      9942      9940      9938      9941      9943
      9940      9938      9941      9944      9942      9941      9944      9945
      9942      9941      9944      9946      9942      9941      9944      9947
      9943      9941      9944      9945      9943      9941      9944      9946
      9943      9941      9944      9947      9948      9949      9964      9965
      9948      9949      9964      9966      9948      9949      9964      9970
      9949      9948      9952      9953      9949      9948      9952      9954
      9949      9948      9952      9955      9949      9948      9956      9957
      9949      9948      9956      9958      9949      9948      9956      9959
      9949      9948      9960      9961      9949      9948      9960      9962
      9949      9948      9960      9963      9949      9964      9970      9967
      9950      9949      9948      9952      9950      9949      9948      9956
      9950      9949      9948      9960      9950      9949      9964      9965
      9950      9949      9964      9966      9950      9949      9964      9970
      9951      9949      9948      9952      9951      9949      9948      9956
      9951      9949      9948      9960      9951      9949      9964      9965
      9951      9949      9964      9966      9951      9949      9964      9970
      9952      9948      9949      9964      9952      9948      9956      9957
      9952      9948      9956      9958      9952      9948      9956      9959
      9952      9948      9960      9961      9952      9948      9960      9962
      9952      9948      9960      9963      9953      9952      9948      9956
      9953      9952      9948      9960      9954      9952      9948      9956
      9954      9952      9948      9960      9955      9952      9948      9956
      9955      9952      9948      9960      9956      9948      9949      9964
      9956      9948      9960      9961      9956      9948      9960      9962
      9956      9948      9960      9963      9957      9956      9948      9960
      9958      9956      9948      9960      9959      9956      9948      9960
      9960      9948      9949      9964      9964      9970      9967      9968
      9964      9970      9967      9969      9964      9970      9967      9971
      9965      9964      9970      9967      9966      9964      9970      9967
      9967      9971      9972      9973      9967      9971      9972      9974
      9967      9971      9972      9975      9968      9967      9971      9972
      9969      9967      9971      9972      9970      9967      9971      9972
      9971      9972      9975      9976      9971      9972      9975      9977
      9971      9972      9975      9983      9972      9975      9977      9978
      9972      9975      9983      9984      9972      9975      9983      9985
      9972      9975      9983      9986      9973      9972      9975      9976
      9973      9972      9975      9977      9973      9972      9975      9983
      9974      9972      9975      9976      9974      9972      9975      9977
      9974      9972      9975      9983      9975      9977      9978      9979
      9975      9977      9978      9980      9975      9983      9986      9987
      9976      9975      9977      9978      9976      9975      9983      9984
      9976      9975      9983      9985      9976      9975      9983      9986
      9977      9975      9983      9984      9977      9975      9983      9985
      9977      9975      9983      9986      9977      9978      9980      9981
      9977      9978      9980      9982      9977      9978      9980      9992
      9978      9977      9975      9983      9978      9980      9992      9993
      9978      9980      9992      9994      9978      9980      9992      9995
      9979      9978      9980      9981      9979      9978      9980      9982
      9979      9978      9980      9992      9980      9992      9995      9996
      9980      9992      9995      9997      9980      9992      9995      9998
      9981      9980      9992      9993      9981      9980      9992      9994
      9981      9980      9992      9995      9982      9980      9992      9993
      9982      9980      9992      9994      9982      9980      9992      9995
      9983      9986      9987      9988      9983      9986      9987      9989
      9984      9983      9986      9987      9985      9983      9986      9987
      9986      9987      9989      9990      9986      9987      9989      9991
      9986      9987      9989     10039      9987      9989     10039     10040
      9987      9989     10039     10041      9987      9989     10039     10042
      9988      9987      9989      9990      9988      9987      9989      9991
      9988      9987      9989     10039      9989     10039     10042     10043
      9989     10039     10042     10044      9989     10039     10042     10045
      9990      9989     10039     10040      9990      9989     10039     10041
      9990      9989     10039     10042      9991      9989     10039     10040
      9991      9989     10039     10041      9991      9989     10039     10042
      9992      9995      9998      9999      9992      9995      9998     10000
      9992      9995      9998     10001      9993      9992      9995      9996
      9993      9992      9995      9997      9993      9992      9995      9998
      9994      9992      9995      9996      9994      9992      9995      9997
      9994      9992      9995      9998      9995      9998     10001     10002
      9995      9998     10001     10003      9995      9998     10001     10004
      9996      9995      9998      9999      9996      9995      9998     10000
      9996      9995      9998     10001      9997      9995      9998      9999
      9997      9995      9998     10000      9997      9995      9998     10001
      9998     10001     10004     10005      9998     10001     10004     10006
      9998     10001     10004     10007      9999      9998     10001     10002
      9999      9998     10001     10003      9999      9998     10001     10004
     10000      9998     10001     10002     10000      9998     10001     10003
     10000      9998     10001     10004     10001     10004     10007     10008
     10001     10004     10007     10009     10001     10004     10007     10010
     10002     10001     10004     10005     10002     10001     10004     10006
     10002     10001     10004     10007     10003     10001     10004     10005
     10003     10001     10004     10006     10003     10001     10004     10007
     10004     10007     10010     10011     10004     10007     10010     10012
     10005     10004     10007     10008     10005     10004     10007     10009
     10005     10004     10007     10010     10006     10004     10007     10008
     10006     10004     10007     10009     10006     10004     10007     10010
     10007     10010     10012     10013     10007     10010     10012     10014
     10008     10007     10010     10011     10008     10007     10010     10012
     10009     10007     10010     10011     10009     10007     10010     10012
     10010     10012     10014     10015     10010     10012     10014     10016
     10010     10012     10014     10017     10011     10010     10012     10013
     10011     10010     10012     10014     10012     10014     10017     10018
     10012     10014     10017     10019     10012     10014     10017     10020
     10013     10012     10014     10015     10013     10012     10014     10016
     10013     10012     10014     10017     10014     10017     10020     10021
     10014     10017     10020     10022     10014     10017     10020     10023
     10015     10014     10017     10018     10015     10014     10017     10019
     10015     10014     10017     10020     10016     10014     10017     10018
     10016     10014     10017     10019     10016     10014     10017     10020
     10017     10020     10023     10024     10017     10020     10023     10025
     10017     10020     10023     10026     10018     10017     10020     10021
     10018     10017     10020     10022     10018     10017     10020     10023
     10019     10017     10020     10021     10019     10017     10020     10022
     10019     10017     10020     10023     10020     10023     10026     10027
     10020     10023     10026     10028     10020     10023     10026     10029
     10021     10020     10023     10024     10021     10020     10023     10025
     10021     10020     10023     10026     10022     10020     10023     10024
     10022     10020     10023     10025     10022     10020     10023     10026
     10023     10026     10029     10030     10023     10026     10029     10031
     10023     10026     10029     10032     10024     10023     10026     10027
     10024     10023     10026     10028     10024     10023     10026     10029
     10025     10023     10026     10027     10025     10023     10026     10028
     10025     10023     10026     10029     10026     10029     10032     10033
     10026     10029     10032     10034     10026     10029     10032     10035
     10027     10026     10029     10030     10027     10026     10029     10031
     10027     10026     10029     10032     10028     10026     10029     10030
     10028     10026     10029     10031     10028     10026     10029     10032
     10029     10032     10035     10036     10029     10032     10035     10037
     10029     10032     10035     10038     10030     10029     10032     10033
     10030     10029     10032     10034     10030     10029     10032     10035
     10031     10029     10032     10033     10031     10029     10032     10034
     10031     10029     10032     10035     10033     10032     10035     10036
     10033     10032     10035     10037     10033     10032     10035     10038
     10034     10032     10035     10036     10034     10032     10035     10037
     10034     10032     10035     10038     10039     10042     10045     10046
     10039     10042     10045     10047     10039     10042     10045     10048
     10040     10039     10042     10043     10040     10039     10042     10044
     10040     10039     10042     10045     10041     10039     10042     10043
     10041     10039     10042     10044     10041     10039     10042     10045
     10042     10045     10048     10049     10042     10045     10048     10050
     10042     10045     10048     10051     10043     10042     10045     10046
     10043     10042     10045     10047     10043     10042     10045     10048
     10044     10042     10045     10046     10044     10042     10045     10047
     10044     10042     10045     10048     10045     10048     10051     10052
     10045     10048     10051     10053     10045     10048     10051     10054
     10046     10045     10048     10049     10046     10045     10048     10050
     10046     10045     10048     10051     10047     10045     10048     10049
     10047     10045     10048     10050     10047     10045     10048     10051
     10048     10051     10054     10055     10048     10051     10054     10056
     10048     10051     10054     10057     10049     10048     10051     10052
     10049     10048     10051     10053     10049     10048     10051     10054
     10050     10048     10051     10052     10050     10048     10051     10053
     10050     10048     10051     10054     10051     10054     10057     10058
     10051     10054     10057     10059     10051     10054     10057     10060
     10052     10051     10054     10055     10052     10051     10054     10056
     10052     10051     10054     10057     10053     10051     10054     10055
     10053     10051     10054     10056     10053     10051     10054     10057
     10054     10057     10060     10061     10054     10057     10060     10062
     10054     10057     10060     10063     10055     10054     10057     10058
     10055     10054     10057     10059     10055     10054     10057     10060
     10056     10054     10057     10058     10056     10054     10057     10059
     10056     10054     10057     10060     10057     10060     10063     10064
     10057     10060     10063     10065     10057     10060     10063     10066
     10058     10057     10060     10061     10058     10057     10060     10062
     10058     10057     10060     10063     10059     10057     10060     10061
     10059     10057     10060     10062     10059     10057     10060     10063
     10060     10063     10066     10067     10060     10063     10066     10068
     10060     10063     10066     10069     10061     10060     10063     10064
     10061     10060     10063     10065     10061     10060     10063     10066
     10062     10060     10063     10064     10062     10060     10063     10065
     10062     10060     10063     10066     10063     10066     10069     10070
     10063     10066     10069     10071     10063     10066     10069     10072
     10064     10063     10066     10067     10064     10063     10066     10068
     10064     10063     10066     10069     10065     10063     10066     10067
     10065     10063     10066     10068     10065     10063     10066     10069
     10066     10069     10072     10073     10066     10069     10072     10074
     10066     10069     10072     10075     10067     10066     10069     10070
     10067     10066     10069     10071     10067     10066     10069     10072
     10068     10066     10069     10070     10068     10066     10069     10071
     10068     10066     10069     10072     10069     10072     10075     10076
     10069     10072     10075     10077     10069     10072     10075     10078
     10070     10069     10072     10073     10070     10069     10072     10074
     10070     10069     10072     10075     10071     10069     10072     10073
     10071     10069     10072     10074     10071     10069     10072     10075
     10072     10075     10078     10079     10072     10075     10078     10080
     10072     10075     10078     10081     10073     10072     10075     10076
     10073     10072     10075     10077     10073     10072     10075     10078
     10074     10072     10075     10076     10074     10072     10075     10077
     10074     10072     10075     10078     10076     10075     10078     10079
     10076     10075     10078     10080     10076     10075     10078     10081
     10077     10075     10078     10079     10077     10075     10078     10080
     10077     10075     10078     10081     10082     10083     10098     10099
     10082     10083     10098     10100     10082     10083     10098     10104
     10083     10082     10086     10087     10083     10082     10086     10088
     10083     10082     10086     10089     10083     10082     10090     10091
     10083     10082     10090     10092     10083     10082     10090     10093
     10083     10082     10094     10095     10083     10082     10094     10096
     10083     10082     10094     10097     10083     10098     10104     10101
     10084     10083     10082     10086     10084     10083     10082     10090
     10084     10083     10082     10094     10084     10083     10098     10099
     10084     10083     10098     10100     10084     10083     10098     10104
     10085     10083     10082     10086     10085     10083     10082     10090
     10085     10083     10082     10094     10085     10083     10098     10099
     10085     10083     10098     10100     10085     10083     10098     10104
     10086     10082     10083     10098     10086     10082     10090     10091
     10086     10082     10090     10092     10086     10082     10090     10093
     10086     10082     10094     10095     10086     10082     10094     10096
     10086     10082     10094     10097     10087     10086     10082     10090
     10087     10086     10082     10094     10088     10086     10082     10090
     10088     10086     10082     10094     10089     10086     10082     10090
     10089     10086     10082     10094     10090     10082     10083     10098
     10090     10082     10094     10095     10090     10082     10094     10096
     10090     10082     10094     10097     10091     10090     10082     10094
     10092     10090     10082     10094     10093     10090     10082     10094
     10094     10082     10083     10098     10098     10104     10101     10102
     10098     10104     10101     10103     10098     10104     10101     10105
     10099     10098     10104     10101     10100     10098     10104     10101
     10101     10105     10106     10107     10101     10105     10106     10108
     10101     10105     10106     10109     10102     10101     10105     10106
     10103     10101     10105     10106     10104     10101     10105     10106
     10105     10106     10109     10110     10105     10106     10109     10111
     10105     10106     10109     10117     10106     10109     10111     10112
     10106     10109     10117     10118     10106     10109     10117     10119
     10106     10109     10117     10120     10107     10106     10109     10110
     10107     10106     10109     10111     10107     10106     10109     10117
     10108     10106     10109     10110     10108     10106     10109     10111
     10108     10106     10109     10117     10109     10111     10112     10113
     10109     10111     10112     10114     10109     10117     10120     10121
     10110     10109     10111     10112     10110     10109     10117     10118
     10110     10109     10117     10119     10110     10109     10117     10120
     10111     10109     10117     10118     10111     10109     10117     10119
     10111     10109     10117     10120     10111     10112     10114     10115
     10111     10112     10114     10116     10111     10112     10114     10126
     10112     10111     10109     10117     10112     10114     10126     10127
     10112     10114     10126     10128     10112     10114     10126     10129
     10113     10112     10114     10115     10113     10112     10114     10116
     10113     10112     10114     10126     10114     10126     10129     10130
     10114     10126     10129     10131     10114     10126     10129     10132
     10115     10114     10126     10127     10115     10114     10126     10128
     10115     10114     10126     10129     10116     10114     10126     10127
     10116     10114     10126     10128     10116     10114     10126     10129
     10117     10120     10121     10122     10117     10120     10121     10123
     10118     10117     10120     10121     10119     10117     10120     10121
     10120     10121     10123     10124     10120     10121     10123     10125
     10120     10121     10123     10173     10121     10123     10173     10174
     10121     10123     10173     10175     10121     10123     10173     10176
     10122     10121     10123     10124     10122     10121     10123     10125
     10122     10121     10123     10173     10123     10173     10176     10177
     10123     10173     10176     10178     10123     10173     10176     10179
     10124     10123     10173     10174     10124     10123     10173     10175
     10124     10123     10173     10176     10125     10123     10173     10174
     10125     10123     10173     10175     10125     10123     10173     10176
     10126     10129     10132     10133     10126     10129     10132     10134
     10126     10129     10132     10135     10127     10126     10129     10130
     10127     10126     10129     10131     10127     10126     10129     10132
     10128     10126     10129     10130     10128     10126     10129     10131
     10128     10126     10129     10132     10129     10132     10135     10136
     10129     10132     10135     10137     10129     10132     10135     10138
     10130     10129     10132     10133     10130     10129     10132     10134
     10130     10129     10132     10135     10131     10129     10132     10133
     10131     10129     10132     10134     10131     10129     10132     10135
     10132     10135     10138     10139     10132     10135     10138     10140
     10132     10135     10138     10141     10133     10132     10135     10136
     10133     10132     10135     10137     10133     10132     10135     10138
     10134     10132     10135     10136     10134     10132     10135     10137
     10134     10132     10135     10138     10135     10138     10141     10142
     10135     10138     10141     10143     10135     10138     10141     10144
     10136     10135     10138     10139     10136     10135     10138     10140
     10136     10135     10138     10141     10137     10135     10138     10139
     10137     10135     10138     10140     10137     10135     10138     10141
     10138     10141     10144     10145     10138     10141     10144     10146
     10139     10138     10141     10142     10139     10138     10141     10143
     10139     10138     10141     10144     10140     10138     10141     10142
     10140     10138     10141     10143     10140     10138     10141     10144
     10141     10144     10146     10147     10141     10144     10146     10148
     10142     10141     10144     10145     10142     10141     10144     10146
     10143     10141     10144     10145     10143     10141     10144     10146
     10144     10146     10148     10149     10144     10146     10148     10150
     10144     10146     10148     10151     10145     10144     10146     10147
     10145     10144     10146     10148     10146     10148     10151     10152
     10146     10148     10151     10153     10146     10148     10151     10154
     10147     10146     10148     10149     10147     10146     10148     10150
     10147     10146     10148     10151     10148     10151     10154     10155
     10148     10151     10154     10156     10148     10151     10154     10157
     10149     10148     10151     10152     10149     10148     10151     10153
     10149     10148     10151     10154     10150     10148     10151     10152
     10150     10148     10151     10153     10150     10148     10151     10154
     10151     10154     10157     10158     10151     10154     10157     10159
     10151     10154     10157     10160     10152     10151     10154     10155
     10152     10151     10154     10156     10152     10151     10154     10157
     10153     10151     10154     10155     10153     10151     10154     10156
     10153     10151     10154     10157     10154     10157     10160     10161
     10154     10157     10160     10162     10154     10157     10160     10163
     10155     10154     10157     10158     10155     10154     10157     10159
     10155     10154     10157     10160     10156     10154     10157     10158
     10156     10154     10157     10159     10156     10154     10157     10160
     10157     10160     10163     10164     10157     10160     10163     10165
     10157     10160     10163     10166     10158     10157     10160     10161
     10158     10157     10160     10162     10158     10157     10160     10163
     10159     10157     10160     10161     10159     10157     10160     10162
     10159     10157     10160     10163     10160     10163     10166     10167
     10160     10163     10166     10168     10160     10163     10166     10169
     10161     10160     10163     10164     10161     10160     10163     10165
     10161     10160     10163     10166     10162     10160     10163     10164
     10162     10160     10163     10165     10162     10160     10163     10166
     10163     10166     10169     10170     10163     10166     10169     10171
     10163     10166     10169     10172     10164     10163     10166     10167
     10164     10163     10166     10168     10164     10163     10166     10169
     10165     10163     10166     10167     10165     10163     10166     10168
     10165     10163     10166     10169     10167     10166     10169     10170
     10167     10166     10169     10171     10167     10166     10169     10172
     10168     10166     10169     10170     10168     10166     10169     10171
     10168     10166     10169     10172     10173     10176     10179     10180
     10173     10176     10179     10181     10173     10176     10179     10182
     10174     10173     10176     10177     10174     10173     10176     10178
     10174     10173     10176     10179     10175     10173     10176     10177
     10175     10173     10176     10178     10175     10173     10176     10179
     10176     10179     10182     10183     10176     10179     10182     10184
     10176     10179     10182     10185     10177     10176     10179     10180
     10177     10176     10179     10181     10177     10176     10179     10182
     10178     10176     10179     10180     10178     10176     10179     10181
     10178     10176     10179     10182     10179     10182     10185     10186
     10179     10182     10185     10187     10179     10182     10185     10188
     10180     10179     10182     10183     10180     10179     10182     10184
     10180     10179     10182     10185     10181     10179     10182     10183
     10181     10179     10182     10184     10181     10179     10182     10185
     10182     10185     10188     10189     10182     10185     10188     10190
     10182     10185     10188     10191     10183     10182     10185     10186
     10183     10182     10185     10187     10183     10182     10185     10188
     10184     10182     10185     10186     10184     10182     10185     10187
     10184     10182     10185     10188     10185     10188     10191     10192
     10185     10188     10191     10193     10185     10188     10191     10194
     10186     10185     10188     10189     10186     10185     10188     10190
     10186     10185     10188     10191     10187     10185     10188     10189
     10187     10185     10188     10190     10187     10185     10188     10191
     10188     10191     10194     10195     10188     10191     10194     10196
     10188     10191     10194     10197     10189     10188     10191     10192
     10189     10188     10191     10193     10189     10188     10191     10194
     10190     10188     10191     10192     10190     10188     10191     10193
     10190     10188     10191     10194     10191     10194     10197     10198
     10191     10194     10197     10199     10191     10194     10197     10200
     10192     10191     10194     10195     10192     10191     10194     10196
     10192     10191     10194     10197     10193     10191     10194     10195
     10193     10191     10194     10196     10193     10191     10194     10197
     10194     10197     10200     10201     10194     10197     10200     10202
     10194     10197     10200     10203     10195     10194     10197     10198
     10195     10194     10197     10199     10195     10194     10197     10200
     10196     10194     10197     10198     10196     10194     10197     10199
     10196     10194     10197     10200     10197     10200     10203     10204
     10197     10200     10203     10205     10197     10200     10203     10206
     10198     10197     10200     10201     10198     10197     10200     10202
     10198     10197     10200     10203     10199     10197     10200     10201
     10199     10197     10200     10202     10199     10197     10200     10203
     10200     10203     10206     10207     10200     10203     10206     10208
     10200     10203     10206     10209     10201     10200     10203     10204
     10201     10200     10203     10205     10201     10200     10203     10206
     10202     10200     10203     10204     10202     10200     10203     10205
     10202     10200     10203     10206     10203     10206     10209     10210
     10203     10206     10209     10211     10203     10206     10209     10212
     10204     10203     10206     10207     10204     10203     10206     10208
     10204     10203     10206     10209     10205     10203     10206     10207
     10205     10203     10206     10208     10205     10203     10206     10209
     10206     10209     10212     10213     10206     10209     10212     10214
     10206     10209     10212     10215     10207     10206     10209     10210
     10207     10206     10209     10211     10207     10206     10209     10212
     10208     10206     10209     10210     10208     10206     10209     10211
     10208     10206     10209     10212     10210     10209     10212     10213
     10210     10209     10212     10214     10210     10209     10212     10215
     10211     10209     10212     10213     10211     10209     10212     10214
     10211     10209     10212     10215     10216     10220     10222     10223
     10216     10220     10222     10224     10216     10220     10225     10226
     10216     10220     10225     10227     10216     10220     10225     10231
     10217     10216     10220     10221     10217     10216     10220     10222
     10217     10216     10220     10225     10218     10216     10220     10221
     10218     10216     10220     10222     10218     10216     10220     10225
     10219     10216     10220     10221     10219     10216     10220     10222
     10219     10216     10220     10225     10220     10225     10231     10228
     10221     10220     10222     10223     10221     10220     10222     10224
     10221     10220     10225     10226     10221     10220     10225     10227
     10221     10220     10225     10231     10222     10220     10225     10226
     10222     10220     10225     10227     10222     10220     10225     10231
     10223     10222     10220     10225     10224     10222     10220     10225
     10225     10231     10228     10229     10225     10231     10228     10230
     10225     10231     10228     10232     10226     10225     10231     10228
     10227     10225     10231     10228     10228     10232     10233     10234
     10228     10232     10233     10235     10228     10232     10233     10236
     10229     10228     10232     10233     10230     10228     10232     10233
     10231     10228     10232     10233     10232     10233     10236     10237
     10232     10233     10236     10238     10232     10233     10236     10244
     10233     10236     10238     10239     10233     10236     10244     10245
     10233     10236     10244     10246     10233     10236     10244     10247
     10234     10233     10236     10237     10234     10233     10236     10238
     10234     10233     10236     10244     10235     10233     10236     10237
     10235     10233     10236     10238     10235     10233     10236     10244
     10236     10238     10239     10240     10236     10238     10239     10241
     10236     10244     10247     10248     10237     10236     10238     10239
     10237     10236     10244     10245     10237     10236     10244     10246
     10237     10236     10244     10247     10238     10236     10244     10245
     10238     10236     10244     10246     10238     10236     10244     10247
     10238     10239     10241     10242     10238     10239     10241     10243
     10238     10239     10241     10253     10239     10238     10236     10244
     10239     10241     10253     10254     10239     10241     10253     10255
     10239     10241     10253     10256     10240     10239     10241     10242
     10240     10239     10241     10243     10240     10239     10241     10253
     10241     10253     10256     10257     10241     10253     10256     10258
     10241     10253     10256     10259     10242     10241     10253     10254
     10242     10241     10253     10255     10242     10241     10253     10256
     10243     10241     10253     10254     10243     10241     10253     10255
     10243     10241     10253     10256     10244     10247     10248     10249
     10244     10247     10248     10250     10245     10244     10247     10248
     10246     10244     10247     10248     10247     10248     10250     10251
     10247     10248     10250     10252     10247     10248     10250     10300
     10248     10250     10300     10301     10248     10250     10300     10302
     10248     10250     10300     10303     10249     10248     10250     10251
     10249     10248     10250     10252     10249     10248     10250     10300
     10250     10300     10303     10304     10250     10300     10303     10305
     10250     10300     10303     10306     10251     10250     10300     10301
     10251     10250     10300     10302     10251     10250     10300     10303
     10252     10250     10300     10301     10252     10250     10300     10302
     10252     10250     10300     10303     10253     10256     10259     10260
     10253     10256     10259     10261     10253     10256     10259     10262
     10254     10253     10256     10257     10254     10253     10256     10258
     10254     10253     10256     10259     10255     10253     10256     10257
     10255     10253     10256     10258     10255     10253     10256     10259
     10256     10259     10262     10263     10256     10259     10262     10264
     10256     10259     10262     10265     10257     10256     10259     10260
     10257     10256     10259     10261     10257     10256     10259     10262
     10258     10256     10259     10260     10258     10256     10259     10261
     10258     10256     10259     10262     10259     10262     10265     10266
     10259     10262     10265     10267     10259     10262     10265     10268
     10260     10259     10262     10263     10260     10259     10262     10264
     10260     10259     10262     10265     10261     10259     10262     10263
     10261     10259     10262     10264     10261     10259     10262     10265
     10262     10265     10268     10269     10262     10265     10268     10270
     10262     10265     10268     10271     10263     10262     10265     10266
     10263     10262     10265     10267     10263     10262     10265     10268
     10264     10262     10265     10266     10264     10262     10265     10267
     10264     10262     10265     10268     10265     10268     10271     10272
     10265     10268     10271     10273     10266     10265     10268     10269
     10266     10265     10268     10270     10266     10265     10268     10271
     10267     10265     10268     10269     10267     10265     10268     10270
     10267     10265     10268     10271     10268     10271     10273     10274
     10268     10271     10273     10275     10269     10268     10271     10272
     10269     10268     10271     10273     10270     10268     10271     10272
     10270     10268     10271     10273     10271     10273     10275     10276
     10271     10273     10275     10277     10271     10273     10275     10278
     10272     10271     10273     10274     10272     10271     10273     10275
     10273     10275     10278     10279     10273     10275     10278     10280
     10273     10275     10278     10281     10274     10273     10275     10276
     10274     10273     10275     10277     10274     10273     10275     10278
     10275     10278     10281     10282     10275     10278     10281     10283
     10275     10278     10281     10284     10276     10275     10278     10279
     10276     10275     10278     10280     10276     10275     10278     10281
     10277     10275     10278     10279     10277     10275     10278     10280
     10277     10275     10278     10281     10278     10281     10284     10285
     10278     10281     10284     10286     10278     10281     10284     10287
     10279     10278     10281     10282     10279     10278     10281     10283
     10279     10278     10281     10284     10280     10278     10281     10282
     10280     10278     10281     10283     10280     10278     10281     10284
     10281     10284     10287     10288     10281     10284     10287     10289
     10281     10284     10287     10290     10282     10281     10284     10285
     10282     10281     10284     10286     10282     10281     10284     10287
     10283     10281     10284     10285     10283     10281     10284     10286
     10283     10281     10284     10287     10284     10287     10290     10291
     10284     10287     10290     10292     10284     10287     10290     10293
     10285     10284     10287     10288     10285     10284     10287     10289
     10285     10284     10287     10290     10286     10284     10287     10288
     10286     10284     10287     10289     10286     10284     10287     10290
     10287     10290     10293     10294     10287     10290     10293     10295
     10287     10290     10293     10296     10288     10287     10290     10291
     10288     10287     10290     10292     10288     10287     10290     10293
     10289     10287     10290     10291     10289     10287     10290     10292
     10289     10287     10290     10293     10290     10293     10296     10297
     10290     10293     10296     10298     10290     10293     10296     10299
     10291     10290     10293     10294     10291     10290     10293     10295
     10291     10290     10293     10296     10292     10290     10293     10294
     10292     10290     10293     10295     10292     10290     10293     10296
     10294     10293     10296     10297     10294     10293     10296     10298
     10294     10293     10296     10299     10295     10293     10296     10297
     10295     10293     10296     10298     10295     10293     10296     10299
     10300     10303     10306     10307     10300     10303     10306     10308
     10300     10303     10306     10309     10301     10300     10303     10304
     10301     10300     10303     10305     10301     10300     10303     10306
     10302     10300     10303     10304     10302     10300     10303     10305
     10302     10300     10303     10306     10303     10306     10309     10310
     10303     10306     10309     10311     10303     10306     10309     10312
     10304     10303     10306     10307     10304     10303     10306     10308
     10304     10303     10306     10309     10305     10303     10306     10307
     10305     10303     10306     10308     10305     10303     10306     10309
     10306     10309     10312     10313     10306     10309     10312     10314
     10306     10309     10312     10315     10307     10306     10309     10310
     10307     10306     10309     10311     10307     10306     10309     10312
     10308     10306     10309     10310     10308     10306     10309     10311
     10308     10306     10309     10312     10309     10312     10315     10316
     10309     10312     10315     10317     10309     10312     10315     10318
     10310     10309     10312     10313     10310     10309     10312     10314
     10310     10309     10312     10315     10311     10309     10312     10313
     10311     10309     10312     10314     10311     10309     10312     10315
     10312     10315     10318     10319     10312     10315     10318     10320
     10312     10315     10318     10321     10313     10312     10315     10316
     10313     10312     10315     10317     10313     10312     10315     10318
     10314     10312     10315     10316     10314     10312     10315     10317
     10314     10312     10315     10318     10315     10318     10321     10322
     10315     10318     10321     10323     10315     10318     10321     10324
     10316     10315     10318     10319     10316     10315     10318     10320
     10316     10315     10318     10321     10317     10315     10318     10319
     10317     10315     10318     10320     10317     10315     10318     10321
     10318     10321     10324     10325     10318     10321     10324     10326
     10318     10321     10324     10327     10319     10318     10321     10322
     10319     10318     10321     10323     10319     10318     10321     10324
     10320     10318     10321     10322     10320     10318     10321     10323
     10320     10318     10321     10324     10321     10324     10327     10328
     10321     10324     10327     10329     10321     10324     10327     10330
     10322     10321     10324     10325     10322     10321     10324     10326
     10322     10321     10324     10327     10323     10321     10324     10325
     10323     10321     10324     10326     10323     10321     10324     10327
     10324     10327     10330     10331     10324     10327     10330     10332
     10324     10327     10330     10333     10325     10324     10327     10328
     10325     10324     10327     10329     10325     10324     10327     10330
     10326     10324     10327     10328     10326     10324     10327     10329
     10326     10324     10327     10330     10327     10330     10333     10334
     10327     10330     10333     10335     10327     10330     10333     10336
     10328     10327     10330     10331     10328     10327     10330     10332
     10328     10327     10330     10333     10329     10327     10330     10331
     10329     10327     10330     10332     10329     10327     10330     10333
     10330     10333     10336     10337     10330     10333     10336     10338
     10330     10333     10336     10339     10331     10330     10333     10334
     10331     10330     10333     10335     10331     10330     10333     10336
     10332     10330     10333     10334     10332     10330     10333     10335
     10332     10330     10333     10336     10333     10336     10339     10340
     10333     10336     10339     10341     10333     10336     10339     10342
     10334     10333     10336     10337     10334     10333     10336     10338
     10334     10333     10336     10339     10335     10333     10336     10337
     10335     10333     10336     10338     10335     10333     10336     10339
     10337     10336     10339     10340     10337     10336     10339     10341
     10337     10336     10339     10342     10338     10336     10339     10340
     10338     10336     10339     10341     10338     10336     10339     10342
     10343     10344     10359     10360     10343     10344     10359     10361
     10343     10344     10359     10365     10344     10343     10347     10348
     10344     10343     10347     10349     10344     10343     10347     10350
     10344     10343     10351     10352     10344     10343     10351     10353
     10344     10343     10351     10354     10344     10343     10355     10356
     10344     10343     10355     10357     10344     10343     10355     10358
     10344     10359     10365     10362     10345     10344     10343     10347
     10345     10344     10343     10351     10345     10344     10343     10355
     10345     10344     10359     10360     10345     10344     10359     10361
     10345     10344     10359     10365     10346     10344     10343     10347
     10346     10344     10343     10351     10346     10344     10343     10355
     10346     10344     10359     10360     10346     10344     10359     10361
     10346     10344     10359     10365     10347     10343     10344     10359
     10347     10343     10351     10352     10347     10343     10351     10353
     10347     10343     10351     10354     10347     10343     10355     10356
     10347     10343     10355     10357     10347     10343     10355     10358
     10348     10347     10343     10351     10348     10347     10343     10355
     10349     10347     10343     10351     10349     10347     10343     10355
     10350     10347     10343     10351     10350     10347     10343     10355
     10351     10343     10344     10359     10351     10343     10355     10356
     10351     10343     10355     10357     10351     10343     10355     10358
     10352     10351     10343     10355     10353     10351     10343     10355
     10354     10351     10343     10355     10355     10343     10344     10359
     10359     10365     10362     10363     10359     10365     10362     10364
     10359     10365     10362     10366     10360     10359     10365     10362
     10361     10359     10365     10362     10362     10366     10367     10368
     10362     10366     10367     10369     10362     10366     10367     10370
     10363     10362     10366     10367     10364     10362     10366     10367
     10365     10362     10366     10367     10366     10367     10370     10371
     10366     10367     10370     10372     10366     10367     10370     10378
     10367     10370     10372     10373     10367     10370     10378     10379
     10367     10370     10378     10380     10367     10370     10378     10381
     10368     10367     10370     10371     10368     10367     10370     10372
     10368     10367     10370     10378     10369     10367     10370     10371
     10369     10367     10370     10372     10369     10367     10370     10378
     10370     10372     10373     10374     10370     10372     10373     10375
     10370     10378     10381     10382     10371     10370     10372     10373
     10371     10370     10378     10379     10371     10370     10378     10380
     10371     10370     10378     10381     10372     10370     10378     10379
     10372     10370     10378     10380     10372     10370     10378     10381
     10372     10373     10375     10376     10372     10373     10375     10377
     10372     10373     10375     10387     10373     10372     10370     10378
     10373     10375     10387     10388     10373     10375     10387     10389
     10373     10375     10387     10390     10374     10373     10375     10376
     10374     10373     10375     10377     10374     10373     10375     10387
     10375     10387     10390     10391     10375     10387     10390     10392
     10375     10387     10390     10393     10376     10375     10387     10388
     10376     10375     10387     10389     10376     10375     10387     10390
     10377     10375     10387     10388     10377     10375     10387     10389
     10377     10375     10387     10390     10378     10381     10382     10383
     10378     10381     10382     10384     10379     10378     10381     10382
     10380     10378     10381     10382     10381     10382     10384     10385
     10381     10382     10384     10386     10381     10382     10384     10434
     10382     10384     10434     10435     10382     10384     10434     10436
     10382     10384     10434     10437     10383     10382     10384     10385
     10383     10382     10384     10386     10383     10382     10384     10434
     10384     10434     10437     10438     10384     10434     10437     10439
     10384     10434     10437     10440     10385     10384     10434     10435
     10385     10384     10434     10436     10385     10384     10434     10437
     10386     10384     10434     10435     10386     10384     10434     10436
     10386     10384     10434     10437     10387     10390     10393     10394
     10387     10390     10393     10395     10387     10390     10393     10396
     10388     10387     10390     10391     10388     10387     10390     10392
     10388     10387     10390     10393     10389     10387     10390     10391
     10389     10387     10390     10392     10389     10387     10390     10393
     10390     10393     10396     10397     10390     10393     10396     10398
     10390     10393     10396     10399     10391     10390     10393     10394
     10391     10390     10393     10395     10391     10390     10393     10396
     10392     10390     10393     10394     10392     10390     10393     10395
     10392     10390     10393     10396     10393     10396     10399     10400
     10393     10396     10399     10401     10393     10396     10399     10402
     10394     10393     10396     10397     10394     10393     10396     10398
     10394     10393     10396     10399     10395     10393     10396     10397
     10395     10393     10396     10398     10395     10393     10396     10399
     10396     10399     10402     10403     10396     10399     10402     10404
     10396     10399     10402     10405     10397     10396     10399     10400
     10397     10396     10399     10401     10397     10396     10399     10402
     10398     10396     10399     10400     10398     10396     10399     10401
     10398     10396     10399     10402     10399     10402     10405     10406
     10399     10402     10405     10407     10400     10399     10402     10403
     10400     10399     10402     10404     10400     10399     10402     10405
     10401     10399     10402     10403     10401     10399     10402     10404
     10401     10399     10402     10405     10402     10405     10407     10408
     10402     10405     10407     10409     10403     10402     10405     10406
     10403     10402     10405     10407     10404     10402     10405     10406
     10404     10402     10405     10407     10405     10407     10409     10410
     10405     10407     10409     10411     10405     10407     10409     10412
     10406     10405     10407     10408     10406     10405     10407     10409
     10407     10409     10412     10413     10407     10409     10412     10414
     10407     10409     10412     10415     10408     10407     10409     10410
     10408     10407     10409     10411     10408     10407     10409     10412
     10409     10412     10415     10416     10409     10412     10415     10417
     10409     10412     10415     10418     10410     10409     10412     10413
     10410     10409     10412     10414     10410     10409     10412     10415
     10411     10409     10412     10413     10411     10409     10412     10414
     10411     10409     10412     10415     10412     10415     10418     10419
     10412     10415     10418     10420     10412     10415     10418     10421
     10413     10412     10415     10416     10413     10412     10415     10417
     10413     10412     10415     10418     10414     10412     10415     10416
     10414     10412     10415     10417     10414     10412     10415     10418
     10415     10418     10421     10422     10415     10418     10421     10423
     10415     10418     10421     10424     10416     10415     10418     10419
     10416     10415     10418     10420     10416     10415     10418     10421
     10417     10415     10418     10419     10417     10415     10418     10420
     10417     10415     10418     10421     10418     10421     10424     10425
     10418     10421     10424     10426     10418     10421     10424     10427
     10419     10418     10421     10422     10419     10418     10421     10423
     10419     10418     10421     10424     10420     10418     10421     10422
     10420     10418     10421     10423     10420     10418     10421     10424
     10421     10424     10427     10428     10421     10424     10427     10429
     10421     10424     10427     10430     10422     10421     10424     10425
     10422     10421     10424     10426     10422     10421     10424     10427
     10423     10421     10424     10425     10423     10421     10424     10426
     10423     10421     10424     10427     10424     10427     10430     10431
     10424     10427     10430     10432     10424     10427     10430     10433
     10425     10424     10427     10428     10425     10424     10427     10429
     10425     10424     10427     10430     10426     10424     10427     10428
     10426     10424     10427     10429     10426     10424     10427     10430
     10428     10427     10430     10431     10428     10427     10430     10432
     10428     10427     10430     10433     10429     10427     10430     10431
     10429     10427     10430     10432     10429     10427     10430     10433
     10434     10437     10440     10441     10434     10437     10440     10442
     10434     10437     10440     10443     10435     10434     10437     10438
     10435     10434     10437     10439     10435     10434     10437     10440
     10436     10434     10437     10438     10436     10434     10437     10439
     10436     10434     10437     10440     10437     10440     10443     10444
     10437     10440     10443     10445     10437     10440     10443     10446
     10438     10437     10440     10441     10438     10437     10440     10442
     10438     10437     10440     10443     10439     10437     10440     10441
     10439     10437     10440     10442     10439     10437     10440     10443
     10440     10443     10446     10447     10440     10443     10446     10448
     10440     10443     10446     10449     10441     10440     10443     10444
     10441     10440     10443     10445     10441     10440     10443     10446
     10442     10440     10443     10444     10442     10440     10443     10445
     10442     10440     10443     10446     10443     10446     10449     10450
     10443     10446     10449     10451     10443     10446     10449     10452
     10444     10443     10446     10447     10444     10443     10446     10448
     10444     10443     10446     10449     10445     10443     10446     10447
     10445     10443     10446     10448     10445     10443     10446     10449
     10446     10449     10452     10453     10446     10449     10452     10454
     10446     10449     10452     10455     10447     10446     10449     10450
     10447     10446     10449     10451     10447     10446     10449     10452
     10448     10446     10449     10450     10448     10446     10449     10451
     10448     10446     10449     10452     10449     10452     10455     10456
     10449     10452     10455     10457     10449     10452     10455     10458
     10450     10449     10452     10453     10450     10449     10452     10454
     10450     10449     10452     10455     10451     10449     10452     10453
     10451     10449     10452     10454     10451     10449     10452     10455
     10452     10455     10458     10459     10452     10455     10458     10460
     10452     10455     10458     10461     10453     10452     10455     10456
     10453     10452     10455     10457     10453     10452     10455     10458
     10454     10452     10455     10456     10454     10452     10455     10457
     10454     10452     10455     10458     10455     10458     10461     10462
     10455     10458     10461     10463     10455     10458     10461     10464
     10456     10455     10458     10459     10456     10455     10458     10460
     10456     10455     10458     10461     10457     10455     10458     10459
     10457     10455     10458     10460     10457     10455     10458     10461
     10458     10461     10464     10465     10458     10461     10464     10466
     10458     10461     10464     10467     10459     10458     10461     10462
     10459     10458     10461     10463     10459     10458     10461     10464
     10460     10458     10461     10462     10460     10458     10461     10463
     10460     10458     10461     10464     10461     10464     10467     10468
     10461     10464     10467     10469     10461     10464     10467     10470
     10462     10461     10464     10465     10462     10461     10464     10466
     10462     10461     10464     10467     10463     10461     10464     10465
     10463     10461     10464     10466     10463     10461     10464     10467
     10464     10467     10470     10471     10464     10467     10470     10472
     10464     10467     10470     10473     10465     10464     10467     10468
     10465     10464     10467     10469     10465     10464     10467     10470
     10466     10464     10467     10468     10466     10464     10467     10469
     10466     10464     10467     10470     10467     10470     10473     10474
     10467     10470     10473     10475     10467     10470     10473     10476
     10468     10467     10470     10471     10468     10467     10470     10472
     10468     10467     10470     10473     10469     10467     10470     10471
     10469     10467     10470     10472     10469     10467     10470     10473
     10471     10470     10473     10474     10471     10470     10473     10475
     10471     10470     10473     10476     10472     10470     10473     10474
     10472     10470     10473     10475     10472     10470     10473     10476
     10477     10478     10493     10494     10477     10478     10493     10495
     10477     10478     10493     10499     10478     10477     10481     10482
     10478     10477     10481     10483     10478     10477     10481     10484
     10478     10477     10485     10486     10478     10477     10485     10487
     10478     10477     10485     10488     10478     10477     10489     10490
     10478     10477     10489     10491     10478     10477     10489     10492
     10478     10493     10499     10496     10479     10478     10477     10481
     10479     10478     10477     10485     10479     10478     10477     10489
     10479     10478     10493     10494     10479     10478     10493     10495
     10479     10478     10493     10499     10480     10478     10477     10481
     10480     10478     10477     10485     10480     10478     10477     10489
     10480     10478     10493     10494     10480     10478     10493     10495
     10480     10478     10493     10499     10481     10477     10478     10493
     10481     10477     10485     10486     10481     10477     10485     10487
     10481     10477     10485     10488     10481     10477     10489     10490
     10481     10477     10489     10491     10481     10477     10489     10492
     10482     10481     10477     10485     10482     10481     10477     10489
     10483     10481     10477     10485     10483     10481     10477     10489
     10484     10481     10477     10485     10484     10481     10477     10489
     10485     10477     10478     10493     10485     10477     10489     10490
     10485     10477     10489     10491     10485     10477     10489     10492
     10486     10485     10477     10489     10487     10485     10477     10489
     10488     10485     10477     10489     10489     10477     10478     10493
     10493     10499     10496     10497     10493     10499     10496     10498
     10493     10499     10496     10500     10494     10493     10499     10496
     10495     10493     10499     10496     10496     10500     10501     10502
     10496     10500     10501     10503     10496     10500     10501     10504
     10497     10496     10500     10501     10498     10496     10500     10501
     10499     10496     10500     10501     10500     10501     10504     10505
     10500     10501     10504     10506     10500     10501     10504     10512
     10501     10504     10506     10507     10501     10504     10512     10513
     10501     10504     10512     10514     10501     10504     10512     10515
     10502     10501     10504     10505     10502     10501     10504     10506
     10502     10501     10504     10512     10503     10501     10504     10505
     10503     10501     10504     10506     10503     10501     10504     10512
     10504     10506     10507     10508     10504     10506     10507     10509
     10504     10512     10515     10516     10505     10504     10506     10507
     10505     10504     10512     10513     10505     10504     10512     10514
     10505     10504     10512     10515     10506     10504     10512     10513
     10506     10504     10512     10514     10506     10504     10512     10515
     10506     10507     10509     10510     10506     10507     10509     10511
     10506     10507     10509     10521     10507     10506     10504     10512
     10507     10509     10521     10522     10507     10509     10521     10523
     10507     10509     10521     10524     10508     10507     10509     10510
     10508     10507     10509     10511     10508     10507     10509     10521
     10509     10521     10524     10525     10509     10521     10524     10526
     10509     10521     10524     10527     10510     10509     10521     10522
     10510     10509     10521     10523     10510     10509     10521     10524
     10511     10509     10521     10522     10511     10509     10521     10523
     10511     10509     10521     10524     10512     10515     10516     10517
     10512     10515     10516     10518     10513     10512     10515     10516
     10514     10512     10515     10516     10515     10516     10518     10519
     10515     10516     10518     10520     10515     10516     10518     10568
     10516     10518     10568     10569     10516     10518     10568     10570
     10516     10518     10568     10571     10517     10516     10518     10519
     10517     10516     10518     10520     10517     10516     10518     10568
     10518     10568     10571     10572     10518     10568     10571     10573
     10518     10568     10571     10574     10519     10518     10568     10569
     10519     10518     10568     10570     10519     10518     10568     10571
     10520     10518     10568     10569     10520     10518     10568     10570
     10520     10518     10568     10571     10521     10524     10527     10528
     10521     10524     10527     10529     10521     10524     10527     10530
     10522     10521     10524     10525     10522     10521     10524     10526
     10522     10521     10524     10527     10523     10521     10524     10525
     10523     10521     10524     10526     10523     10521     10524     10527
     10524     10527     10530     10531     10524     10527     10530     10532
     10524     10527     10530     10533     10525     10524     10527     10528
     10525     10524     10527     10529     10525     10524     10527     10530
     10526     10524     10527     10528     10526     10524     10527     10529
     10526     10524     10527     10530     10527     10530     10533     10534
     10527     10530     10533     10535     10527     10530     10533     10536
     10528     10527     10530     10531     10528     10527     10530     10532
     10528     10527     10530     10533     10529     10527     10530     10531
     10529     10527     10530     10532     10529     10527     10530     10533
     10530     10533     10536     10537     10530     10533     10536     10538
     10530     10533     10536     10539     10531     10530     10533     10534
     10531     10530     10533     10535     10531     10530     10533     10536
     10532     10530     10533     10534     10532     10530     10533     10535
     10532     10530     10533     10536     10533     10536     10539     10540
     10533     10536     10539     10541     10534     10533     10536     10537
     10534     10533     10536     10538     10534     10533     10536     10539
     10535     10533     10536     10537     10535     10533     10536     10538
     10535     10533     10536     10539     10536     10539     10541     10542
     10536     10539     10541     10543     10537     10536     10539     10540
     10537     10536     10539     10541     10538     10536     10539     10540
     10538     10536     10539     10541     10539     10541     10543     10544
     10539     10541     10543     10545     10539     10541     10543     10546
     10540     10539     10541     10542     10540     10539     10541     10543
     10541     10543     10546     10547     10541     10543     10546     10548
     10541     10543     10546     10549     10542     10541     10543     10544
     10542     10541     10543     10545     10542     10541     10543     10546
     10543     10546     10549     10550     10543     10546     10549     10551
     10543     10546     10549     10552     10544     10543     10546     10547
     10544     10543     10546     10548     10544     10543     10546     10549
     10545     10543     10546     10547     10545     10543     10546     10548
     10545     10543     10546     10549     10546     10549     10552     10553
     10546     10549     10552     10554     10546     10549     10552     10555
     10547     10546     10549     10550     10547     10546     10549     10551
     10547     10546     10549     10552     10548     10546     10549     10550
     10548     10546     10549     10551     10548     10546     10549     10552
     10549     10552     10555     10556     10549     10552     10555     10557
     10549     10552     10555     10558     10550     10549     10552     10553
     10550     10549     10552     10554     10550     10549     10552     10555
     10551     10549     10552     10553     10551     10549     10552     10554
     10551     10549     10552     10555     10552     10555     10558     10559
     10552     10555     10558     10560     10552     10555     10558     10561
     10553     10552     10555     10556     10553     10552     10555     10557
     10553     10552     10555     10558     10554     10552     10555     10556
     10554     10552     10555     10557     10554     10552     10555     10558
     10555     10558     10561     10562     10555     10558     10561     10563
     10555     10558     10561     10564     10556     10555     10558     10559
     10556     10555     10558     10560     10556     10555     10558     10561
     10557     10555     10558     10559     10557     10555     10558     10560
     10557     10555     10558     10561     10558     10561     10564     10565
     10558     10561     10564     10566     10558     10561     10564     10567
     10559     10558     10561     10562     10559     10558     10561     10563
     10559     10558     10561     10564     10560     10558     10561     10562
     10560     10558     10561     10563     10560     10558     10561     10564
     10562     10561     10564     10565     10562     10561     10564     10566
     10562     10561     10564     10567     10563     10561     10564     10565
     10563     10561     10564     10566     10563     10561     10564     10567
     10568     10571     10574     10575     10568     10571     10574     10576
     10568     10571     10574     10577     10569     10568     10571     10572
     10569     10568     10571     10573     10569     10568     10571     10574
     10570     10568     10571     10572     10570     10568     10571     10573
     10570     10568     10571     10574     10571     10574     10577     10578
     10571     10574     10577     10579     10571     10574     10577     10580
     10572     10571     10574     10575     10572     10571     10574     10576
     10572     10571     10574     10577     10573     10571     10574     10575
     10573     10571     10574     10576     10573     10571     10574     10577
     10574     10577     10580     10581     10574     10577     10580     10582
     10574     10577     10580     10583     10575     10574     10577     10578
     10575     10574     10577     10579     10575     10574     10577     10580
     10576     10574     10577     10578     10576     10574     10577     10579
     10576     10574     10577     10580     10577     10580     10583     10584
     10577     10580     10583     10585     10577     10580     10583     10586
     10578     10577     10580     10581     10578     10577     10580     10582
     10578     10577     10580     10583     10579     10577     10580     10581
     10579     10577     10580     10582     10579     10577     10580     10583
     10580     10583     10586     10587     10580     10583     10586     10588
     10580     10583     10586     10589     10581     10580     10583     10584
     10581     10580     10583     10585     10581     10580     10583     10586
     10582     10580     10583     10584     10582     10580     10583     10585
     10582     10580     10583     10586     10583     10586     10589     10590
     10583     10586     10589     10591     10583     10586     10589     10592
     10584     10583     10586     10587     10584     10583     10586     10588
     10584     10583     10586     10589     10585     10583     10586     10587
     10585     10583     10586     10588     10585     10583     10586     10589
     10586     10589     10592     10593     10586     10589     10592     10594
     10586     10589     10592     10595     10587     10586     10589     10590
     10587     10586     10589     10591     10587     10586     10589     10592
     10588     10586     10589     10590     10588     10586     10589     10591
     10588     10586     10589     10592     10589     10592     10595     10596
     10589     10592     10595     10597     10589     10592     10595     10598
     10590     10589     10592     10593     10590     10589     10592     10594
     10590     10589     10592     10595     10591     10589     10592     10593
     10591     10589     10592     10594     10591     10589     10592     10595
     10592     10595     10598     10599     10592     10595     10598     10600
     10592     10595     10598     10601     10593     10592     10595     10596
     10593     10592     10595     10597     10593     10592     10595     10598
     10594     10592     10595     10596     10594     10592     10595     10597
     10594     10592     10595     10598     10595     10598     10601     10602
     10595     10598     10601     10603     10595     10598     10601     10604
     10596     10595     10598     10599     10596     10595     10598     10600
     10596     10595     10598     10601     10597     10595     10598     10599
     10597     10595     10598     10600     10597     10595     10598     10601
     10598     10601     10604     10605     10598     10601     10604     10606
     10598     10601     10604     10607     10599     10598     10601     10602
     10599     10598     10601     10603     10599     10598     10601     10604
     10600     10598     10601     10602     10600     10598     10601     10603
     10600     10598     10601     10604     10601     10604     10607     10608
     10601     10604     10607     10609     10601     10604     10607     10610
     10602     10601     10604     10605     10602     10601     10604     10606
     10602     10601     10604     10607     10603     10601     10604     10605
     10603     10601     10604     10606     10603     10601     10604     10607
     10605     10604     10607     10608     10605     10604     10607     10609
     10605     10604     10607     10610     10606     10604     10607     10608
     10606     10604     10607     10609     10606     10604     10607     10610
     10611     10612     10627     10628     10611     10612     10627     10629
     10611     10612     10627     10633     10612     10611     10615     10616
     10612     10611     10615     10617     10612     10611     10615     10618
     10612     10611     10619     10620     10612     10611     10619     10621
     10612     10611     10619     10622     10612     10611     10623     10624
     10612     10611     10623     10625     10612     10611     10623     10626
     10612     10627     10633     10630     10613     10612     10611     10615
     10613     10612     10611     10619     10613     10612     10611     10623
     10613     10612     10627     10628     10613     10612     10627     10629
     10613     10612     10627     10633     10614     10612     10611     10615
     10614     10612     10611     10619     10614     10612     10611     10623
     10614     10612     10627     10628     10614     10612     10627     10629
     10614     10612     10627     10633     10615     10611     10612     10627
     10615     10611     10619     10620     10615     10611     10619     10621
     10615     10611     10619     10622     10615     10611     10623     10624
     10615     10611     10623     10625     10615     10611     10623     10626
     10616     10615     10611     10619     10616     10615     10611     10623
     10617     10615     10611     10619     10617     10615     10611     10623
     10618     10615     10611     10619     10618     10615     10611     10623
     10619     10611     10612     10627     10619     10611     10623     10624
     10619     10611     10623     10625     10619     10611     10623     10626
     10620     10619     10611     10623     10621     10619     10611     10623
     10622     10619     10611     10623     10623     10611     10612     10627
     10627     10633     10630     10631     10627     10633     10630     10632
     10627     10633     10630     10634     10628     10627     10633     10630
     10629     10627     10633     10630     10630     10634     10635     10636
     10630     10634     10635     10637     10630     10634     10635     10638
     10631     10630     10634     10635     10632     10630     10634     10635
     10633     10630     10634     10635     10634     10635     10638     10639
     10634     10635     10638     10640     10634     10635     10638     10646
     10635     10638     10640     10641     10635     10638     10646     10647
     10635     10638     10646     10648     10635     10638     10646     10649
     10636     10635     10638     10639     10636     10635     10638     10640
     10636     10635     10638     10646     10637     10635     10638     10639
     10637     10635     10638     10640     10637     10635     10638     10646
     10638     10640     10641     10642     10638     10640     10641     10643
     10638     10646     10649     10650     10639     10638     10640     10641
     10639     10638     10646     10647     10639     10638     10646     10648
     10639     10638     10646     10649     10640     10638     10646     10647
     10640     10638     10646     10648     10640     10638     10646     10649
     10640     10641     10643     10644     10640     10641     10643     10645
     10640     10641     10643     10655     10641     10640     10638     10646
     10641     10643     10655     10656     10641     10643     10655     10657
     10641     10643     10655     10658     10642     10641     10643     10644
     10642     10641     10643     10645     10642     10641     10643     10655
     10643     10655     10658     10659     10643     10655     10658     10660
     10643     10655     10658     10661     10644     10643     10655     10656
     10644     10643     10655     10657     10644     10643     10655     10658
     10645     10643     10655     10656     10645     10643     10655     10657
     10645     10643     10655     10658     10646     10649     10650     10651
     10646     10649     10650     10652     10647     10646     10649     10650
     10648     10646     10649     10650     10649     10650     10652     10653
     10649     10650     10652     10654     10649     10650     10652     10702
     10650     10652     10702     10703     10650     10652     10702     10704
     10650     10652     10702     10705     10651     10650     10652     10653
     10651     10650     10652     10654     10651     10650     10652     10702
     10652     10702     10705     10706     10652     10702     10705     10707
     10652     10702     10705     10708     10653     10652     10702     10703
     10653     10652     10702     10704     10653     10652     10702     10705
     10654     10652     10702     10703     10654     10652     10702     10704
     10654     10652     10702     10705     10655     10658     10661     10662
     10655     10658     10661     10663     10655     10658     10661     10664
     10656     10655     10658     10659     10656     10655     10658     10660
     10656     10655     10658     10661     10657     10655     10658     10659
     10657     10655     10658     10660     10657     10655     10658     10661
     10658     10661     10664     10665     10658     10661     10664     10666
     10658     10661     10664     10667     10659     10658     10661     10662
     10659     10658     10661     10663     10659     10658     10661     10664
     10660     10658     10661     10662     10660     10658     10661     10663
     10660     10658     10661     10664     10661     10664     10667     10668
     10661     10664     10667     10669     10661     10664     10667     10670
     10662     10661     10664     10665     10662     10661     10664     10666
     10662     10661     10664     10667     10663     10661     10664     10665
     10663     10661     10664     10666     10663     10661     10664     10667
     10664     10667     10670     10671     10664     10667     10670     10672
     10664     10667     10670     10673     10665     10664     10667     10668
     10665     10664     10667     10669     10665     10664     10667     10670
     10666     10664     10667     10668     10666     10664     10667     10669
     10666     10664     10667     10670     10667     10670     10673     10674
     10667     10670     10673     10675     10668     10667     10670     10671
     10668     10667     10670     10672     10668     10667     10670     10673
     10669     10667     10670     10671     10669     10667     10670     10672
     10669     10667     10670     10673     10670     10673     10675     10676
     10670     10673     10675     10677     10671     10670     10673     10674
     10671     10670     10673     10675     10672     10670     10673     10674
     10672     10670     10673     10675     10673     10675     10677     10678
     10673     10675     10677     10679     10673     10675     10677     10680
     10674     10673     10675     10676     10674     10673     10675     10677
     10675     10677     10680     10681     10675     10677     10680     10682
     10675     10677     10680     10683     10676     10675     10677     10678
     10676     10675     10677     10679     10676     10675     10677     10680
     10677     10680     10683     10684     10677     10680     10683     10685
     10677     10680     10683     10686     10678     10677     10680     10681
     10678     10677     10680     10682     10678     10677     10680     10683
     10679     10677     10680     10681     10679     10677     10680     10682
     10679     10677     10680     10683     10680     10683     10686     10687
     10680     10683     10686     10688     10680     10683     10686     10689
     10681     10680     10683     10684     10681     10680     10683     10685
     10681     10680     10683     10686     10682     10680     10683     10684
     10682     10680     10683     10685     10682     10680     10683     10686
     10683     10686     10689     10690     10683     10686     10689     10691
     10683     10686     10689     10692     10684     10683     10686     10687
     10684     10683     10686     10688     10684     10683     10686     10689
     10685     10683     10686     10687     10685     10683     10686     10688
     10685     10683     10686     10689     10686     10689     10692     10693
     10686     10689     10692     10694     10686     10689     10692     10695
     10687     10686     10689     10690     10687     10686     10689     10691
     10687     10686     10689     10692     10688     10686     10689     10690
     10688     10686     10689     10691     10688     10686     10689     10692
     10689     10692     10695     10696     10689     10692     10695     10697
     10689     10692     10695     10698     10690     10689     10692     10693
     10690     10689     10692     10694     10690     10689     10692     10695
     10691     10689     10692     10693     10691     10689     10692     10694
     10691     10689     10692     10695     10692     10695     10698     10699
     10692     10695     10698     10700     10692     10695     10698     10701
     10693     10692     10695     10696     10693     10692     10695     10697
     10693     10692     10695     10698     10694     10692     10695     10696
     10694     10692     10695     10697     10694     10692     10695     10698
     10696     10695     10698     10699     10696     10695     10698     10700
     10696     10695     10698     10701     10697     10695     10698     10699
     10697     10695     10698     10700     10697     10695     10698     10701
     10702     10705     10708     10709     10702     10705     10708     10710
     10702     10705     10708     10711     10703     10702     10705     10706
     10703     10702     10705     10707     10703     10702     10705     10708
     10704     10702     10705     10706     10704     10702     10705     10707
     10704     10702     10705     10708     10705     10708     10711     10712
     10705     10708     10711     10713     10705     10708     10711     10714
     10706     10705     10708     10709     10706     10705     10708     10710
     10706     10705     10708     10711     10707     10705     10708     10709
     10707     10705     10708     10710     10707     10705     10708     10711
     10708     10711     10714     10715     10708     10711     10714     10716
     10708     10711     10714     10717     10709     10708     10711     10712
     10709     10708     10711     10713     10709     10708     10711     10714
     10710     10708     10711     10712     10710     10708     10711     10713
     10710     10708     10711     10714     10711     10714     10717     10718
     10711     10714     10717     10719     10711     10714     10717     10720
     10712     10711     10714     10715     10712     10711     10714     10716
     10712     10711     10714     10717     10713     10711     10714     10715
     10713     10711     10714     10716     10713     10711     10714     10717
     10714     10717     10720     10721     10714     10717     10720     10722
     10714     10717     10720     10723     10715     10714     10717     10718
     10715     10714     10717     10719     10715     10714     10717     10720
     10716     10714     10717     10718     10716     10714     10717     10719
     10716     10714     10717     10720     10717     10720     10723     10724
     10717     10720     10723     10725     10717     10720     10723     10726
     10718     10717     10720     10721     10718     10717     10720     10722
     10718     10717     10720     10723     10719     10717     10720     10721
     10719     10717     10720     10722     10719     10717     10720     10723
     10720     10723     10726     10727     10720     10723     10726     10728
     10720     10723     10726     10729     10721     10720     10723     10724
     10721     10720     10723     10725     10721     10720     10723     10726
     10722     10720     10723     10724     10722     10720     10723     10725
     10722     10720     10723     10726     10723     10726     10729     10730
     10723     10726     10729     10731     10723     10726     10729     10732
     10724     10723     10726     10727     10724     10723     10726     10728
     10724     10723     10726     10729     10725     10723     10726     10727
     10725     10723     10726     10728     10725     10723     10726     10729
     10726     10729     10732     10733     10726     10729     10732     10734
     10726     10729     10732     10735     10727     10726     10729     10730
     10727     10726     10729     10731     10727     10726     10729     10732
     10728     10726     10729     10730     10728     10726     10729     10731
     10728     10726     10729     10732     10729     10732     10735     10736
     10729     10732     10735     10737     10729     10732     10735     10738
     10730     10729     10732     10733     10730     10729     10732     10734
     10730     10729     10732     10735     10731     10729     10732     10733
     10731     10729     10732     10734     10731     10729     10732     10735
     10732     10735     10738     10739     10732     10735     10738     10740
     10732     10735     10738     10741     10733     10732     10735     10736
     10733     10732     10735     10737     10733     10732     10735     10738
     10734     10732     10735     10736     10734     10732     10735     10737
     10734     10732     10735     10738     10735     10738     10741     10742
     10735     10738     10741     10743     10735     10738     10741     10744
     10736     10735     10738     10739     10736     10735     10738     10740
     10736     10735     10738     10741     10737     10735     10738     10739
     10737     10735     10738     10740     10737     10735     10738     10741
     10739     10738     10741     10742     10739     10738     10741     10743
     10739     10738     10741     10744     10740     10738     10741     10742
     10740     10738     10741     10743     10740     10738     10741     10744
     10745     10746     10761     10762     10745     10746     10761     10763
     10745     10746     10761     10767     10746     10745     10749     10750
     10746     10745     10749     10751     10746     10745     10749     10752
     10746     10745     10753     10754     10746     10745     10753     10755
     10746     10745     10753     10756     10746     10745     10757     10758
     10746     10745     10757     10759     10746     10745     10757     10760
     10746     10761     10767     10764     10747     10746     10745     10749
     10747     10746     10745     10753     10747     10746     10745     10757
     10747     10746     10761     10762     10747     10746     10761     10763
     10747     10746     10761     10767     10748     10746     10745     10749
     10748     10746     10745     10753     10748     10746     10745     10757
     10748     10746     10761     10762     10748     10746     10761     10763
     10748     10746     10761     10767     10749     10745     10746     10761
     10749     10745     10753     10754     10749     10745     10753     10755
     10749     10745     10753     10756     10749     10745     10757     10758
     10749     10745     10757     10759     10749     10745     10757     10760
     10750     10749     10745     10753     10750     10749     10745     10757
     10751     10749     10745     10753     10751     10749     10745     10757
     10752     10749     10745     10753     10752     10749     10745     10757
     10753     10745     10746     10761     10753     10745     10757     10758
     10753     10745     10757     10759     10753     10745     10757     10760
     10754     10753     10745     10757     10755     10753     10745     10757
     10756     10753     10745     10757     10757     10745     10746     10761
     10761     10767     10764     10765     10761     10767     10764     10766
     10761     10767     10764     10768     10762     10761     10767     10764
     10763     10761     10767     10764     10764     10768     10769     10770
     10764     10768     10769     10771     10764     10768     10769     10772
     10765     10764     10768     10769     10766     10764     10768     10769
     10767     10764     10768     10769     10768     10769     10772     10773
     10768     10769     10772     10774     10768     10769     10772     10780
     10769     10772     10774     10775     10769     10772     10780     10781
     10769     10772     10780     10782     10769     10772     10780     10783
     10770     10769     10772     10773     10770     10769     10772     10774
     10770     10769     10772     10780     10771     10769     10772     10773
     10771     10769     10772     10774     10771     10769     10772     10780
     10772     10774     10775     10776     10772     10774     10775     10777
     10772     10780     10783     10784     10773     10772     10774     10775
     10773     10772     10780     10781     10773     10772     10780     10782
     10773     10772     10780     10783     10774     10772     10780     10781
     10774     10772     10780     10782     10774     10772     10780     10783
     10774     10775     10777     10778     10774     10775     10777     10779
     10774     10775     10777     10789     10775     10774     10772     10780
     10775     10777     10789     10790     10775     10777     10789     10791
     10775     10777     10789     10792     10776     10775     10777     10778
     10776     10775     10777     10779     10776     10775     10777     10789
     10777     10789     10792     10793     10777     10789     10792     10794
     10777     10789     10792     10795     10778     10777     10789     10790
     10778     10777     10789     10791     10778     10777     10789     10792
     10779     10777     10789     10790     10779     10777     10789     10791
     10779     10777     10789     10792     10780     10783     10784     10785
     10780     10783     10784     10786     10781     10780     10783     10784
     10782     10780     10783     10784     10783     10784     10786     10787
     10783     10784     10786     10788     10783     10784     10786     10836
     10784     10786     10836     10837     10784     10786     10836     10838
     10784     10786     10836     10839     10785     10784     10786     10787
     10785     10784     10786     10788     10785     10784     10786     10836
     10786     10836     10839     10840     10786     10836     10839     10841
     10786     10836     10839     10842     10787     10786     10836     10837
     10787     10786     10836     10838     10787     10786     10836     10839
     10788     10786     10836     10837     10788     10786     10836     10838
     10788     10786     10836     10839     10789     10792     10795     10796
     10789     10792     10795     10797     10789     10792     10795     10798
     10790     10789     10792     10793     10790     10789     10792     10794
     10790     10789     10792     10795     10791     10789     10792     10793
     10791     10789     10792     10794     10791     10789     10792     10795
     10792     10795     10798     10799     10792     10795     10798     10800
     10792     10795     10798     10801     10793     10792     10795     10796
     10793     10792     10795     10797     10793     10792     10795     10798
     10794     10792     10795     10796     10794     10792     10795     10797
     10794     10792     10795     10798     10795     10798     10801     10802
     10795     10798     10801     10803     10795     10798     10801     10804
     10796     10795     10798     10799     10796     10795     10798     10800
     10796     10795     10798     10801     10797     10795     10798     10799
     10797     10795     10798     10800     10797     10795     10798     10801
     10798     10801     10804     10805     10798     10801     10804     10806
     10798     10801     10804     10807     10799     10798     10801     10802
     10799     10798     10801     10803     10799     10798     10801     10804
     10800     10798     10801     10802     10800     10798     10801     10803
     10800     10798     10801     10804     10801     10804     10807     10808
     10801     10804     10807     10809     10802     10801     10804     10805
     10802     10801     10804     10806     10802     10801     10804     10807
     10803     10801     10804     10805     10803     10801     10804     10806
     10803     10801     10804     10807     10804     10807     10809     10810
     10804     10807     10809     10811     10805     10804     10807     10808
     10805     10804     10807     10809     10806     10804     10807     10808
     10806     10804     10807     10809     10807     10809     10811     10812
     10807     10809     10811     10813     10807     10809     10811     10814
     10808     10807     10809     10810     10808     10807     10809     10811
     10809     10811     10814     10815     10809     10811     10814     10816
     10809     10811     10814     10817     10810     10809     10811     10812
     10810     10809     10811     10813     10810     10809     10811     10814
     10811     10814     10817     10818     10811     10814     10817     10819
     10811     10814     10817     10820     10812     10811     10814     10815
     10812     10811     10814     10816     10812     10811     10814     10817
     10813     10811     10814     10815     10813     10811     10814     10816
     10813     10811     10814     10817     10814     10817     10820     10821
     10814     10817     10820     10822     10814     10817     10820     10823
     10815     10814     10817     10818     10815     10814     10817     10819
     10815     10814     10817     10820     10816     10814     10817     10818
     10816     10814     10817     10819     10816     10814     10817     10820
     10817     10820     10823     10824     10817     10820     10823     10825
     10817     10820     10823     10826     10818     10817     10820     10821
     10818     10817     10820     10822     10818     10817     10820     10823
     10819     10817     10820     10821     10819     10817     10820     10822
     10819     10817     10820     10823     10820     10823     10826     10827
     10820     10823     10826     10828     10820     10823     10826     10829
     10821     10820     10823     10824     10821     10820     10823     10825
     10821     10820     10823     10826     10822     10820     10823     10824
     10822     10820     10823     10825     10822     10820     10823     10826
     10823     10826     10829     10830     10823     10826     10829     10831
     10823     10826     10829     10832     10824     10823     10826     10827
     10824     10823     10826     10828     10824     10823     10826     10829
     10825     10823     10826     10827     10825     10823     10826     10828
     10825     10823     10826     10829     10826     10829     10832     10833
     10826     10829     10832     10834     10826     10829     10832     10835
     10827     10826     10829     10830     10827     10826     10829     10831
     10827     10826     10829     10832     10828     10826     10829     10830
     10828     10826     10829     10831     10828     10826     10829     10832
     10830     10829     10832     10833     10830     10829     10832     10834
     10830     10829     10832     10835     10831     10829     10832     10833
     10831     10829     10832     10834     10831     10829     10832     10835
     10836     10839     10842     10843     10836     10839     10842     10844
     10836     10839     10842     10845     10837     10836     10839     10840
     10837     10836     10839     10841     10837     10836     10839     10842
     10838     10836     10839     10840     10838     10836     10839     10841
     10838     10836     10839     10842     10839     10842     10845     10846
     10839     10842     10845     10847     10839     10842     10845     10848
     10840     10839     10842     10843     10840     10839     10842     10844
     10840     10839     10842     10845     10841     10839     10842     10843
     10841     10839     10842     10844     10841     10839     10842     10845
     10842     10845     10848     10849     10842     10845     10848     10850
     10842     10845     10848     10851     10843     10842     10845     10846
     10843     10842     10845     10847     10843     10842     10845     10848
     10844     10842     10845     10846     10844     10842     10845     10847
     10844     10842     10845     10848     10845     10848     10851     10852
     10845     10848     10851     10853     10845     10848     10851     10854
     10846     10845     10848     10849     10846     10845     10848     10850
     10846     10845     10848     10851     10847     10845     10848     10849
     10847     10845     10848     10850     10847     10845     10848     10851
     10848     10851     10854     10855     10848     10851     10854     10856
     10848     10851     10854     10857     10849     10848     10851     10852
     10849     10848     10851     10853     10849     10848     10851     10854
     10850     10848     10851     10852     10850     10848     10851     10853
     10850     10848     10851     10854     10851     10854     10857     10858
     10851     10854     10857     10859     10851     10854     10857     10860
     10852     10851     10854     10855     10852     10851     10854     10856
     10852     10851     10854     10857     10853     10851     10854     10855
     10853     10851     10854     10856     10853     10851     10854     10857
     10854     10857     10860     10861     10854     10857     10860     10862
     10854     10857     10860     10863     10855     10854     10857     10858
     10855     10854     10857     10859     10855     10854     10857     10860
     10856     10854     10857     10858     10856     10854     10857     10859
     10856     10854     10857     10860     10857     10860     10863     10864
     10857     10860     10863     10865     10857     10860     10863     10866
     10858     10857     10860     10861     10858     10857     10860     10862
     10858     10857     10860     10863     10859     10857     10860     10861
     10859     10857     10860     10862     10859     10857     10860     10863
     10860     10863     10866     10867     10860     10863     10866     10868
     10860     10863     10866     10869     10861     10860     10863     10864
     10861     10860     10863     10865     10861     10860     10863     10866
     10862     10860     10863     10864     10862     10860     10863     10865
     10862     10860     10863     10866     10863     10866     10869     10870
     10863     10866     10869     10871     10863     10866     10869     10872
     10864     10863     10866     10867     10864     10863     10866     10868
     10864     10863     10866     10869     10865     10863     10866     10867
     10865     10863     10866     10868     10865     10863     10866     10869
     10866     10869     10872     10873     10866     10869     10872     10874
     10866     10869     10872     10875     10867     10866     10869     10870
     10867     10866     10869     10871     10867     10866     10869     10872
     10868     10866     10869     10870     10868     10866     10869     10871
     10868     10866     10869     10872     10869     10872     10875     10876
     10869     10872     10875     10877     10869     10872     10875     10878
     10870     10869     10872     10873     10870     10869     10872     10874
     10870     10869     10872     10875     10871     10869     10872     10873
     10871     10869     10872     10874     10871     10869     10872     10875
     10873     10872     10875     10876     10873     10872     10875     10877
     10873     10872     10875     10878     10874     10872     10875     10876
     10874     10872     10875     10877     10874     10872     10875     10878
     10879     10880     10895     10896     10879     10880     10895     10897
     10879     10880     10895     10901     10880     10879     10883     10884
     10880     10879     10883     10885     10880     10879     10883     10886
     10880     10879     10887     10888     10880     10879     10887     10889
     10880     10879     10887     10890     10880     10879     10891     10892
     10880     10879     10891     10893     10880     10879     10891     10894
     10880     10895     10901     10898     10881     10880     10879     10883
     10881     10880     10879     10887     10881     10880     10879     10891
     10881     10880     10895     10896     10881     10880     10895     10897
     10881     10880     10895     10901     10882     10880     10879     10883
     10882     10880     10879     10887     10882     10880     10879     10891
     10882     10880     10895     10896     10882     10880     10895     10897
     10882     10880     10895     10901     10883     10879     10880     10895
     10883     10879     10887     10888     10883     10879     10887     10889
     10883     10879     10887     10890     10883     10879     10891     10892
     10883     10879     10891     10893     10883     10879     10891     10894
     10884     10883     10879     10887     10884     10883     10879     10891
     10885     10883     10879     10887     10885     10883     10879     10891
     10886     10883     10879     10887     10886     10883     10879     10891
     10887     10879     10880     10895     10887     10879     10891     10892
     10887     10879     10891     10893     10887     10879     10891     10894
     10888     10887     10879     10891     10889     10887     10879     10891
     10890     10887     10879     10891     10891     10879     10880     10895
     10895     10901     10898     10899     10895     10901     10898     10900
     10895     10901     10898     10902     10896     10895     10901     10898
     10897     10895     10901     10898     10898     10902     10903     10904
     10898     10902     10903     10905     10898     10902     10903     10906
     10899     10898     10902     10903     10900     10898     10902     10903
     10901     10898     10902     10903     10902     10903     10906     10907
     10902     10903     10906     10908     10902     10903     10906     10914
     10903     10906     10908     10909     10903     10906     10914     10915
     10903     10906     10914     10916     10903     10906     10914     10917
     10904     10903     10906     10907     10904     10903     10906     10908
     10904     10903     10906     10914     10905     10903     10906     10907
     10905     10903     10906     10908     10905     10903     10906     10914
     10906     10908     10909     10910     10906     10908     10909     10911
     10906     10914     10917     10918     10907     10906     10908     10909
     10907     10906     10914     10915     10907     10906     10914     10916
     10907     10906     10914     10917     10908     10906     10914     10915
     10908     10906     10914     10916     10908     10906     10914     10917
     10908     10909     10911     10912     10908     10909     10911     10913
     10908     10909     10911     10923     10909     10908     10906     10914
     10909     10911     10923     10924     10909     10911     10923     10925
     10909     10911     10923     10926     10910     10909     10911     10912
     10910     10909     10911     10913     10910     10909     10911     10923
     10911     10923     10926     10927     10911     10923     10926     10928
     10911     10923     10926     10929     10912     10911     10923     10924
     10912     10911     10923     10925     10912     10911     10923     10926
     10913     10911     10923     10924     10913     10911     10923     10925
     10913     10911     10923     10926     10914     10917     10918     10919
     10914     10917     10918     10920     10915     10914     10917     10918
     10916     10914     10917     10918     10917     10918     10920     10921
     10917     10918     10920     10922     10917     10918     10920     10970
     10918     10920     10970     10971     10918     10920     10970     10972
     10918     10920     10970     10973     10919     10918     10920     10921
     10919     10918     10920     10922     10919     10918     10920     10970
     10920     10970     10973     10974     10920     10970     10973     10975
     10920     10970     10973     10976     10921     10920     10970     10971
     10921     10920     10970     10972     10921     10920     10970     10973
     10922     10920     10970     10971     10922     10920     10970     10972
     10922     10920     10970     10973     10923     10926     10929     10930
     10923     10926     10929     10931     10923     10926     10929     10932
     10924     10923     10926     10927     10924     10923     10926     10928
     10924     10923     10926     10929     10925     10923     10926     10927
     10925     10923     10926     10928     10925     10923     10926     10929
     10926     10929     10932     10933     10926     10929     10932     10934
     10926     10929     10932     10935     10927     10926     10929     10930
     10927     10926     10929     10931     10927     10926     10929     10932
     10928     10926     10929     10930     10928     10926     10929     10931
     10928     10926     10929     10932     10929     10932     10935     10936
     10929     10932     10935     10937     10929     10932     10935     10938
     10930     10929     10932     10933     10930     10929     10932     10934
     10930     10929     10932     10935     10931     10929     10932     10933
     10931     10929     10932     10934     10931     10929     10932     10935
     10932     10935     10938     10939     10932     10935     10938     10940
     10932     10935     10938     10941     10933     10932     10935     10936
     10933     10932     10935     10937     10933     10932     10935     10938
     10934     10932     10935     10936     10934     10932     10935     10937
     10934     10932     10935     10938     10935     10938     10941     10942
     10935     10938     10941     10943     10936     10935     10938     10939
     10936     10935     10938     10940     10936     10935     10938     10941
     10937     10935     10938     10939     10937     10935     10938     10940
     10937     10935     10938     10941     10938     10941     10943     10944
     10938     10941     10943     10945     10939     10938     10941     10942
     10939     10938     10941     10943     10940     10938     10941     10942
     10940     10938     10941     10943     10941     10943     10945     10946
     10941     10943     10945     10947     10941     10943     10945     10948
     10942     10941     10943     10944     10942     10941     10943     10945
     10943     10945     10948     10949     10943     10945     10948     10950
     10943     10945     10948     10951     10944     10943     10945     10946
     10944     10943     10945     10947     10944     10943     10945     10948
     10945     10948     10951     10952     10945     10948     10951     10953
     10945     10948     10951     10954     10946     10945     10948     10949
     10946     10945     10948     10950     10946     10945     10948     10951
     10947     10945     10948     10949     10947     10945     10948     10950
     10947     10945     10948     10951     10948     10951     10954     10955
     10948     10951     10954     10956     10948     10951     10954     10957
     10949     10948     10951     10952     10949     10948     10951     10953
     10949     10948     10951     10954     10950     10948     10951     10952
     10950     10948     10951     10953     10950     10948     10951     10954
     10951     10954     10957     10958     10951     10954     10957     10959
     10951     10954     10957     10960     10952     10951     10954     10955
     10952     10951     10954     10956     10952     10951     10954     10957
     10953     10951     10954     10955     10953     10951     10954     10956
     10953     10951     10954     10957     10954     10957     10960     10961
     10954     10957     10960     10962     10954     10957     10960     10963
     10955     10954     10957     10958     10955     10954     10957     10959
     10955     10954     10957     10960     10956     10954     10957     10958
     10956     10954     10957     10959     10956     10954     10957     10960
     10957     10960     10963     10964     10957     10960     10963     10965
     10957     10960     10963     10966     10958     10957     10960     10961
     10958     10957     10960     10962     10958     10957     10960     10963
     10959     10957     10960     10961     10959     10957     10960     10962
     10959     10957     10960     10963     10960     10963     10966     10967
     10960     10963     10966     10968     10960     10963     10966     10969
     10961     10960     10963     10964     10961     10960     10963     10965
     10961     10960     10963     10966     10962     10960     10963     10964
     10962     10960     10963     10965     10962     10960     10963     10966
     10964     10963     10966     10967     10964     10963     10966     10968
     10964     10963     10966     10969     10965     10963     10966     10967
     10965     10963     10966     10968     10965     10963     10966     10969
     10970     10973     10976     10977     10970     10973     10976     10978
     10970     10973     10976     10979     10971     10970     10973     10974
     10971     10970     10973     10975     10971     10970     10973     10976
     10972     10970     10973     10974     10972     10970     10973     10975
     10972     10970     10973     10976     10973     10976     10979     10980
     10973     10976     10979     10981     10973     10976     10979     10982
     10974     10973     10976     10977     10974     10973     10976     10978
     10974     10973     10976     10979     10975     10973     10976     10977
     10975     10973     10976     10978     10975     10973     10976     10979
     10976     10979     10982     10983     10976     10979     10982     10984
     10976     10979     10982     10985     10977     10976     10979     10980
     10977     10976     10979     10981     10977     10976     10979     10982
     10978     10976     10979     10980     10978     10976     10979     10981
     10978     10976     10979     10982     10979     10982     10985     10986
     10979     10982     10985     10987     10979     10982     10985     10988
     10980     10979     10982     10983     10980     10979     10982     10984
     10980     10979     10982     10985     10981     10979     10982     10983
     10981     10979     10982     10984     10981     10979     10982     10985
     10982     10985     10988     10989     10982     10985     10988     10990
     10982     10985     10988     10991     10983     10982     10985     10986
     10983     10982     10985     10987     10983     10982     10985     10988
     10984     10982     10985     10986     10984     10982     10985     10987
     10984     10982     10985     10988     10985     10988     10991     10992
     10985     10988     10991     10993     10985     10988     10991     10994
     10986     10985     10988     10989     10986     10985     10988     10990
     10986     10985     10988     10991     10987     10985     10988     10989
     10987     10985     10988     10990     10987     10985     10988     10991
     10988     10991     10994     10995     10988     10991     10994     10996
     10988     10991     10994     10997     10989     10988     10991     10992
     10989     10988     10991     10993     10989     10988     10991     10994
     10990     10988     10991     10992     10990     10988     10991     10993
     10990     10988     10991     10994     10991     10994     10997     10998
     10991     10994     10997     10999     10991     10994     10997     11000
     10992     10991     10994     10995     10992     10991     10994     10996
     10992     10991     10994     10997     10993     10991     10994     10995
     10993     10991     10994     10996     10993     10991     10994     10997
     10994     10997     11000     11001     10994     10997     11000     11002
     10994     10997     11000     11003     10995     10994     10997     10998
     10995     10994     10997     10999     10995     10994     10997     11000
     10996     10994     10997     10998     10996     10994     10997     10999
     10996     10994     10997     11000     10997     11000     11003     11004
     10997     11000     11003     11005     10997     11000     11003     11006
     10998     10997     11000     11001     10998     10997     11000     11002
     10998     10997     11000     11003     10999     10997     11000     11001
     10999     10997     11000     11002     10999     10997     11000     11003
     11000     11003     11006     11007     11000     11003     11006     11008
     11000     11003     11006     11009     11001     11000     11003     11004
     11001     11000     11003     11005     11001     11000     11003     11006
     11002     11000     11003     11004     11002     11000     11003     11005
     11002     11000     11003     11006     11003     11006     11009     11010
     11003     11006     11009     11011     11003     11006     11009     11012
     11004     11003     11006     11007     11004     11003     11006     11008
     11004     11003     11006     11009     11005     11003     11006     11007
     11005     11003     11006     11008     11005     11003     11006     11009
     11007     11006     11009     11010     11007     11006     11009     11011
     11007     11006     11009     11012     11008     11006     11009     11010
     11008     11006     11009     11011     11008     11006     11009     11012
     11013     11014     11029     11030     11013     11014     11029     11031
     11013     11014     11029     11035     11014     11013     11017     11018
     11014     11013     11017     11019     11014     11013     11017     11020
     11014     11013     11021     11022     11014     11013     11021     11023
     11014     11013     11021     11024     11014     11013     11025     11026
     11014     11013     11025     11027     11014     11013     11025     11028
     11014     11029     11035     11032     11015     11014     11013     11017
     11015     11014     11013     11021     11015     11014     11013     11025
     11015     11014     11029     11030     11015     11014     11029     11031
     11015     11014     11029     11035     11016     11014     11013     11017
     11016     11014     11013     11021     11016     11014     11013     11025
     11016     11014     11029     11030     11016     11014     11029     11031
     11016     11014     11029     11035     11017     11013     11014     11029
     11017     11013     11021     11022     11017     11013     11021     11023
     11017     11013     11021     11024     11017     11013     11025     11026
     11017     11013     11025     11027     11017     11013     11025     11028
     11018     11017     11013     11021     11018     11017     11013     11025
     11019     11017     11013     11021     11019     11017     11013     11025
     11020     11017     11013     11021     11020     11017     11013     11025
     11021     11013     11014     11029     11021     11013     11025     11026
     11021     11013     11025     11027     11021     11013     11025     11028
     11022     11021     11013     11025     11023     11021     11013     11025
     11024     11021     11013     11025     11025     11013     11014     11029
     11029     11035     11032     11033     11029     11035     11032     11034
     11029     11035     11032     11036     11030     11029     11035     11032
     11031     11029     11035     11032     11032     11036     11037     11038
     11032     11036     11037     11039     11032     11036     11037     11040
     11033     11032     11036     11037     11034     11032     11036     11037
     11035     11032     11036     11037     11036     11037     11040     11041
     11036     11037     11040     11042     11036     11037     11040     11048
     11037     11040     11042     11043     11037     11040     11048     11049
     11037     11040     11048     11050     11037     11040     11048     11051
     11038     11037     11040     11041     11038     11037     11040     11042
     11038     11037     11040     11048     11039     11037     11040     11041
     11039     11037     11040     11042     11039     11037     11040     11048
     11040     11042     11043     11044     11040     11042     11043     11045
     11040     11048     11051     11052     11041     11040     11042     11043
     11041     11040     11048     11049     11041     11040     11048     11050
     11041     11040     11048     11051     11042     11040     11048     11049
     11042     11040     11048     11050     11042     11040     11048     11051
     11042     11043     11045     11046     11042     11043     11045     11047
     11042     11043     11045     11057     11043     11042     11040     11048
     11043     11045     11057     11058     11043     11045     11057     11059
     11043     11045     11057     11060     11044     11043     11045     11046
     11044     11043     11045     11047     11044     11043     11045     11057
     11045     11057     11060     11061     11045     11057     11060     11062
     11045     11057     11060     11063     11046     11045     11057     11058
     11046     11045     11057     11059     11046     11045     11057     11060
     11047     11045     11057     11058     11047     11045     11057     11059
     11047     11045     11057     11060     11048     11051     11052     11053
     11048     11051     11052     11054     11049     11048     11051     11052
     11050     11048     11051     11052     11051     11052     11054     11055
     11051     11052     11054     11056     11051     11052     11054     11104
     11052     11054     11104     11105     11052     11054     11104     11106
     11052     11054     11104     11107     11053     11052     11054     11055
     11053     11052     11054     11056     11053     11052     11054     11104
     11054     11104     11107     11108     11054     11104     11107     11109
     11054     11104     11107     11110     11055     11054     11104     11105
     11055     11054     11104     11106     11055     11054     11104     11107
     11056     11054     11104     11105     11056     11054     11104     11106
     11056     11054     11104     11107     11057     11060     11063     11064
     11057     11060     11063     11065     11057     11060     11063     11066
     11058     11057     11060     11061     11058     11057     11060     11062
     11058     11057     11060     11063     11059     11057     11060     11061
     11059     11057     11060     11062     11059     11057     11060     11063
     11060     11063     11066     11067     11060     11063     11066     11068
     11060     11063     11066     11069     11061     11060     11063     11064
     11061     11060     11063     11065     11061     11060     11063     11066
     11062     11060     11063     11064     11062     11060     11063     11065
     11062     11060     11063     11066     11063     11066     11069     11070
     11063     11066     11069     11071     11063     11066     11069     11072
     11064     11063     11066     11067     11064     11063     11066     11068
     11064     11063     11066     11069     11065     11063     11066     11067
     11065     11063     11066     11068     11065     11063     11066     11069
     11066     11069     11072     11073     11066     11069     11072     11074
     11066     11069     11072     11075     11067     11066     11069     11070
     11067     11066     11069     11071     11067     11066     11069     11072
     11068     11066     11069     11070     11068     11066     11069     11071
     11068     11066     11069     11072     11069     11072     11075     11076
     11069     11072     11075     11077     11070     11069     11072     11073
     11070     11069     11072     11074     11070     11069     11072     11075
     11071     11069     11072     11073     11071     11069     11072     11074
     11071     11069     11072     11075     11072     11075     11077     11078
     11072     11075     11077     11079     11073     11072     11075     11076
     11073     11072     11075     11077     11074     11072     11075     11076
     11074     11072     11075     11077     11075     11077     11079     11080
     11075     11077     11079     11081     11075     11077     11079     11082
     11076     11075     11077     11078     11076     11075     11077     11079
     11077     11079     11082     11083     11077     11079     11082     11084
     11077     11079     11082     11085     11078     11077     11079     11080
     11078     11077     11079     11081     11078     11077     11079     11082
     11079     11082     11085     11086     11079     11082     11085     11087
     11079     11082     11085     11088     11080     11079     11082     11083
     11080     11079     11082     11084     11080     11079     11082     11085
     11081     11079     11082     11083     11081     11079     11082     11084
     11081     11079     11082     11085     11082     11085     11088     11089
     11082     11085     11088     11090     11082     11085     11088     11091
     11083     11082     11085     11086     11083     11082     11085     11087
     11083     11082     11085     11088     11084     11082     11085     11086
     11084     11082     11085     11087     11084     11082     11085     11088
     11085     11088     11091     11092     11085     11088     11091     11093
     11085     11088     11091     11094     11086     11085     11088     11089
     11086     11085     11088     11090     11086     11085     11088     11091
     11087     11085     11088     11089     11087     11085     11088     11090
     11087     11085     11088     11091     11088     11091     11094     11095
     11088     11091     11094     11096     11088     11091     11094     11097
     11089     11088     11091     11092     11089     11088     11091     11093
     11089     11088     11091     11094     11090     11088     11091     11092
     11090     11088     11091     11093     11090     11088     11091     11094
     11091     11094     11097     11098     11091     11094     11097     11099
     11091     11094     11097     11100     11092     11091     11094     11095
     11092     11091     11094     11096     11092     11091     11094     11097
     11093     11091     11094     11095     11093     11091     11094     11096
     11093     11091     11094     11097     11094     11097     11100     11101
     11094     11097     11100     11102     11094     11097     11100     11103
     11095     11094     11097     11098     11095     11094     11097     11099
     11095     11094     11097     11100     11096     11094     11097     11098
     11096     11094     11097     11099     11096     11094     11097     11100
     11098     11097     11100     11101     11098     11097     11100     11102
     11098     11097     11100     11103     11099     11097     11100     11101
     11099     11097     11100     11102     11099     11097     11100     11103
     11104     11107     11110     11111     11104     11107     11110     11112
     11104     11107     11110     11113     11105     11104     11107     11108
     11105     11104     11107     11109     11105     11104     11107     11110
     11106     11104     11107     11108     11106     11104     11107     11109
     11106     11104     11107     11110     11107     11110     11113     11114
     11107     11110     11113     11115     11107     11110     11113     11116
     11108     11107     11110     11111     11108     11107     11110     11112
     11108     11107     11110     11113     11109     11107     11110     11111
     11109     11107     11110     11112     11109     11107     11110     11113
     11110     11113     11116     11117     11110     11113     11116     11118
     11110     11113     11116     11119     11111     11110     11113     11114
     11111     11110     11113     11115     11111     11110     11113     11116
     11112     11110     11113     11114     11112     11110     11113     11115
     11112     11110     11113     11116     11113     11116     11119     11120
     11113     11116     11119     11121     11113     11116     11119     11122
     11114     11113     11116     11117     11114     11113     11116     11118
     11114     11113     11116     11119     11115     11113     11116     11117
     11115     11113     11116     11118     11115     11113     11116     11119
     11116     11119     11122     11123     11116     11119     11122     11124
     11116     11119     11122     11125     11117     11116     11119     11120
     11117     11116     11119     11121     11117     11116     11119     11122
     11118     11116     11119     11120     11118     11116     11119     11121
     11118     11116     11119     11122     11119     11122     11125     11126
     11119     11122     11125     11127     11119     11122     11125     11128
     11120     11119     11122     11123     11120     11119     11122     11124
     11120     11119     11122     11125     11121     11119     11122     11123
     11121     11119     11122     11124     11121     11119     11122     11125
     11122     11125     11128     11129     11122     11125     11128     11130
     11122     11125     11128     11131     11123     11122     11125     11126
     11123     11122     11125     11127     11123     11122     11125     11128
     11124     11122     11125     11126     11124     11122     11125     11127
     11124     11122     11125     11128     11125     11128     11131     11132
     11125     11128     11131     11133     11125     11128     11131     11134
     11126     11125     11128     11129     11126     11125     11128     11130
     11126     11125     11128     11131     11127     11125     11128     11129
     11127     11125     11128     11130     11127     11125     11128     11131
     11128     11131     11134     11135     11128     11131     11134     11136
     11128     11131     11134     11137     11129     11128     11131     11132
     11129     11128     11131     11133     11129     11128     11131     11134
     11130     11128     11131     11132     11130     11128     11131     11133
     11130     11128     11131     11134     11131     11134     11137     11138
     11131     11134     11137     11139     11131     11134     11137     11140
     11132     11131     11134     11135     11132     11131     11134     11136
     11132     11131     11134     11137     11133     11131     11134     11135
     11133     11131     11134     11136     11133     11131     11134     11137
     11134     11137     11140     11141     11134     11137     11140     11142
     11134     11137     11140     11143     11135     11134     11137     11138
     11135     11134     11137     11139     11135     11134     11137     11140
     11136     11134     11137     11138     11136     11134     11137     11139
     11136     11134     11137     11140     11137     11140     11143     11144
     11137     11140     11143     11145     11137     11140     11143     11146
     11138     11137     11140     11141     11138     11137     11140     11142
     11138     11137     11140     11143     11139     11137     11140     11141
     11139     11137     11140     11142     11139     11137     11140     11143
     11141     11140     11143     11144     11141     11140     11143     11145
     11141     11140     11143     11146     11142     11140     11143     11144
     11142     11140     11143     11145     11142     11140     11143     11146
     11147     11148     11163     11164     11147     11148     11163     11165
     11147     11148     11163     11169     11148     11147     11151     11152
     11148     11147     11151     11153     11148     11147     11151     11154
     11148     11147     11155     11156     11148     11147     11155     11157
     11148     11147     11155     11158     11148     11147     11159     11160
     11148     11147     11159     11161     11148     11147     11159     11162
     11148     11163     11169     11166     11149     11148     11147     11151
     11149     11148     11147     11155     11149     11148     11147     11159
     11149     11148     11163     11164     11149     11148     11163     11165
     11149     11148     11163     11169     11150     11148     11147     11151
     11150     11148     11147     11155     11150     11148     11147     11159
     11150     11148     11163     11164     11150     11148     11163     11165
     11150     11148     11163     11169     11151     11147     11148     11163
     11151     11147     11155     11156     11151     11147     11155     11157
     11151     11147     11155     11158     11151     11147     11159     11160
     11151     11147     11159     11161     11151     11147     11159     11162
     11152     11151     11147     11155     11152     11151     11147     11159
     11153     11151     11147     11155     11153     11151     11147     11159
     11154     11151     11147     11155     11154     11151     11147     11159
     11155     11147     11148     11163     11155     11147     11159     11160
     11155     11147     11159     11161     11155     11147     11159     11162
     11156     11155     11147     11159     11157     11155     11147     11159
     11158     11155     11147     11159     11159     11147     11148     11163
     11163     11169     11166     11167     11163     11169     11166     11168
     11163     11169     11166     11170     11164     11163     11169     11166
     11165     11163     11169     11166     11166     11170     11171     11172
     11166     11170     11171     11173     11166     11170     11171     11174
     11167     11166     11170     11171     11168     11166     11170     11171
     11169     11166     11170     11171     11170     11171     11174     11175
     11170     11171     11174     11176     11170     11171     11174     11182
     11171     11174     11176     11177     11171     11174     11182     11183
     11171     11174     11182     11184     11171     11174     11182     11185
     11172     11171     11174     11175     11172     11171     11174     11176
     11172     11171     11174     11182     11173     11171     11174     11175
     11173     11171     11174     11176     11173     11171     11174     11182
     11174     11176     11177     11178     11174     11176     11177     11179
     11174     11182     11185     11186     11175     11174     11176     11177
     11175     11174     11182     11183     11175     11174     11182     11184
     11175     11174     11182     11185     11176     11174     11182     11183
     11176     11174     11182     11184     11176     11174     11182     11185
     11176     11177     11179     11180     11176     11177     11179     11181
     11176     11177     11179     11191     11177     11176     11174     11182
     11177     11179     11191     11192     11177     11179     11191     11193
     11177     11179     11191     11194     11178     11177     11179     11180
     11178     11177     11179     11181     11178     11177     11179     11191
     11179     11191     11194     11195     11179     11191     11194     11196
     11179     11191     11194     11197     11180     11179     11191     11192
     11180     11179     11191     11193     11180     11179     11191     11194
     11181     11179     11191     11192     11181     11179     11191     11193
     11181     11179     11191     11194     11182     11185     11186     11187
     11182     11185     11186     11188     11183     11182     11185     11186
     11184     11182     11185     11186     11185     11186     11188     11189
     11185     11186     11188     11190     11185     11186     11188     11238
     11186     11188     11238     11239     11186     11188     11238     11240
     11186     11188     11238     11241     11187     11186     11188     11189
     11187     11186     11188     11190     11187     11186     11188     11238
     11188     11238     11241     11242     11188     11238     11241     11243
     11188     11238     11241     11244     11189     11188     11238     11239
     11189     11188     11238     11240     11189     11188     11238     11241
     11190     11188     11238     11239     11190     11188     11238     11240
     11190     11188     11238     11241     11191     11194     11197     11198
     11191     11194     11197     11199     11191     11194     11197     11200
     11192     11191     11194     11195     11192     11191     11194     11196
     11192     11191     11194     11197     11193     11191     11194     11195
     11193     11191     11194     11196     11193     11191     11194     11197
     11194     11197     11200     11201     11194     11197     11200     11202
     11194     11197     11200     11203     11195     11194     11197     11198
     11195     11194     11197     11199     11195     11194     11197     11200
     11196     11194     11197     11198     11196     11194     11197     11199
     11196     11194     11197     11200     11197     11200     11203     11204
     11197     11200     11203     11205     11197     11200     11203     11206
     11198     11197     11200     11201     11198     11197     11200     11202
     11198     11197     11200     11203     11199     11197     11200     11201
     11199     11197     11200     11202     11199     11197     11200     11203
     11200     11203     11206     11207     11200     11203     11206     11208
     11200     11203     11206     11209     11201     11200     11203     11204
     11201     11200     11203     11205     11201     11200     11203     11206
     11202     11200     11203     11204     11202     11200     11203     11205
     11202     11200     11203     11206     11203     11206     11209     11210
     11203     11206     11209     11211     11204     11203     11206     11207
     11204     11203     11206     11208     11204     11203     11206     11209
     11205     11203     11206     11207     11205     11203     11206     11208
     11205     11203     11206     11209     11206     11209     11211     11212
     11206     11209     11211     11213     11207     11206     11209     11210
     11207     11206     11209     11211     11208     11206     11209     11210
     11208     11206     11209     11211     11209     11211     11213     11214
     11209     11211     11213     11215     11209     11211     11213     11216
     11210     11209     11211     11212     11210     11209     11211     11213
     11211     11213     11216     11217     11211     11213     11216     11218
     11211     11213     11216     11219     11212     11211     11213     11214
     11212     11211     11213     11215     11212     11211     11213     11216
     11213     11216     11219     11220     11213     11216     11219     11221
     11213     11216     11219     11222     11214     11213     11216     11217
     11214     11213     11216     11218     11214     11213     11216     11219
     11215     11213     11216     11217     11215     11213     11216     11218
     11215     11213     11216     11219     11216     11219     11222     11223
     11216     11219     11222     11224     11216     11219     11222     11225
     11217     11216     11219     11220     11217     11216     11219     11221
     11217     11216     11219     11222     11218     11216     11219     11220
     11218     11216     11219     11221     11218     11216     11219     11222
     11219     11222     11225     11226     11219     11222     11225     11227
     11219     11222     11225     11228     11220     11219     11222     11223
     11220     11219     11222     11224     11220     11219     11222     11225
     11221     11219     11222     11223     11221     11219     11222     11224
     11221     11219     11222     11225     11222     11225     11228     11229
     11222     11225     11228     11230     11222     11225     11228     11231
     11223     11222     11225     11226     11223     11222     11225     11227
     11223     11222     11225     11228     11224     11222     11225     11226
     11224     11222     11225     11227     11224     11222     11225     11228
     11225     11228     11231     11232     11225     11228     11231     11233
     11225     11228     11231     11234     11226     11225     11228     11229
     11226     11225     11228     11230     11226     11225     11228     11231
     11227     11225     11228     11229     11227     11225     11228     11230
     11227     11225     11228     11231     11228     11231     11234     11235
     11228     11231     11234     11236     11228     11231     11234     11237
     11229     11228     11231     11232     11229     11228     11231     11233
     11229     11228     11231     11234     11230     11228     11231     11232
     11230     11228     11231     11233     11230     11228     11231     11234
     11232     11231     11234     11235     11232     11231     11234     11236
     11232     11231     11234     11237     11233     11231     11234     11235
     11233     11231     11234     11236     11233     11231     11234     11237
     11238     11241     11244     11245     11238     11241     11244     11246
     11238     11241     11244     11247     11239     11238     11241     11242
     11239     11238     11241     11243     11239     11238     11241     11244
     11240     11238     11241     11242     11240     11238     11241     11243
     11240     11238     11241     11244     11241     11244     11247     11248
     11241     11244     11247     11249     11241     11244     11247     11250
     11242     11241     11244     11245     11242     11241     11244     11246
     11242     11241     11244     11247     11243     11241     11244     11245
     11243     11241     11244     11246     11243     11241     11244     11247
     11244     11247     11250     11251     11244     11247     11250     11252
     11244     11247     11250     11253     11245     11244     11247     11248
     11245     11244     11247     11249     11245     11244     11247     11250
     11246     11244     11247     11248     11246     11244     11247     11249
     11246     11244     11247     11250     11247     11250     11253     11254
     11247     11250     11253     11255     11247     11250     11253     11256
     11248     11247     11250     11251     11248     11247     11250     11252
     11248     11247     11250     11253     11249     11247     11250     11251
     11249     11247     11250     11252     11249     11247     11250     11253
     11250     11253     11256     11257     11250     11253     11256     11258
     11250     11253     11256     11259     11251     11250     11253     11254
     11251     11250     11253     11255     11251     11250     11253     11256
     11252     11250     11253     11254     11252     11250     11253     11255
     11252     11250     11253     11256     11253     11256     11259     11260
     11253     11256     11259     11261     11253     11256     11259     11262
     11254     11253     11256     11257     11254     11253     11256     11258
     11254     11253     11256     11259     11255     11253     11256     11257
     11255     11253     11256     11258     11255     11253     11256     11259
     11256     11259     11262     11263     11256     11259     11262     11264
     11256     11259     11262     11265     11257     11256     11259     11260
     11257     11256     11259     11261     11257     11256     11259     11262
     11258     11256     11259     11260     11258     11256     11259     11261
     11258     11256     11259     11262     11259     11262     11265     11266
     11259     11262     11265     11267     11259     11262     11265     11268
     11260     11259     11262     11263     11260     11259     11262     11264
     11260     11259     11262     11265     11261     11259     11262     11263
     11261     11259     11262     11264     11261     11259     11262     11265
     11262     11265     11268     11269     11262     11265     11268     11270
     11262     11265     11268     11271     11263     11262     11265     11266
     11263     11262     11265     11267     11263     11262     11265     11268
     11264     11262     11265     11266     11264     11262     11265     11267
     11264     11262     11265     11268     11265     11268     11271     11272
     11265     11268     11271     11273     11265     11268     11271     11274
     11266     11265     11268     11269     11266     11265     11268     11270
     11266     11265     11268     11271     11267     11265     11268     11269
     11267     11265     11268     11270     11267     11265     11268     11271
     11268     11271     11274     11275     11268     11271     11274     11276
     11268     11271     11274     11277     11269     11268     11271     11272
     11269     11268     11271     11273     11269     11268     11271     11274
     11270     11268     11271     11272     11270     11268     11271     11273
     11270     11268     11271     11274     11271     11274     11277     11278
     11271     11274     11277     11279     11271     11274     11277     11280
     11272     11271     11274     11275     11272     11271     11274     11276
     11272     11271     11274     11277     11273     11271     11274     11275
     11273     11271     11274     11276     11273     11271     11274     11277
     11275     11274     11277     11278     11275     11274     11277     11279
     11275     11274     11277     11280     11276     11274     11277     11278
     11276     11274     11277     11279     11276     11274     11277     11280
     11281     11282     11297     11298     11281     11282     11297     11299
     11281     11282     11297     11303     11282     11281     11285     11286
     11282     11281     11285     11287     11282     11281     11285     11288
     11282     11281     11289     11290     11282     11281     11289     11291
     11282     11281     11289     11292     11282     11281     11293     11294
     11282     11281     11293     11295     11282     11281     11293     11296
     11282     11297     11303     11300     11283     11282     11281     11285
     11283     11282     11281     11289     11283     11282     11281     11293
     11283     11282     11297     11298     11283     11282     11297     11299
     11283     11282     11297     11303     11284     11282     11281     11285
     11284     11282     11281     11289     11284     11282     11281     11293
     11284     11282     11297     11298     11284     11282     11297     11299
     11284     11282     11297     11303     11285     11281     11282     11297
     11285     11281     11289     11290     11285     11281     11289     11291
     11285     11281     11289     11292     11285     11281     11293     11294
     11285     11281     11293     11295     11285     11281     11293     11296
     11286     11285     11281     11289     11286     11285     11281     11293
     11287     11285     11281     11289     11287     11285     11281     11293
     11288     11285     11281     11289     11288     11285     11281     11293
     11289     11281     11282     11297     11289     11281     11293     11294
     11289     11281     11293     11295     11289     11281     11293     11296
     11290     11289     11281     11293     11291     11289     11281     11293
     11292     11289     11281     11293     11293     11281     11282     11297
     11297     11303     11300     11301     11297     11303     11300     11302
     11297     11303     11300     11304     11298     11297     11303     11300
     11299     11297     11303     11300     11300     11304     11305     11306
     11300     11304     11305     11307     11300     11304     11305     11308
     11301     11300     11304     11305     11302     11300     11304     11305
     11303     11300     11304     11305     11304     11305     11308     11309
     11304     11305     11308     11310     11304     11305     11308     11316
     11305     11308     11310     11311     11305     11308     11316     11317
     11305     11308     11316     11318     11305     11308     11316     11319
     11306     11305     11308     11309     11306     11305     11308     11310
     11306     11305     11308     11316     11307     11305     11308     11309
     11307     11305     11308     11310     11307     11305     11308     11316
     11308     11310     11311     11312     11308     11310     11311     11313
     11308     11316     11319     11320     11309     11308     11310     11311
     11309     11308     11316     11317     11309     11308     11316     11318
     11309     11308     11316     11319     11310     11308     11316     11317
     11310     11308     11316     11318     11310     11308     11316     11319
     11310     11311     11313     11314     11310     11311     11313     11315
     11310     11311     11313     11325     11311     11310     11308     11316
     11311     11313     11325     11326     11311     11313     11325     11327
     11311     11313     11325     11328     11312     11311     11313     11314
     11312     11311     11313     11315     11312     11311     11313     11325
     11313     11325     11328     11329     11313     11325     11328     11330
     11313     11325     11328     11331     11314     11313     11325     11326
     11314     11313     11325     11327     11314     11313     11325     11328
     11315     11313     11325     11326     11315     11313     11325     11327
     11315     11313     11325     11328     11316     11319     11320     11321
     11316     11319     11320     11322     11317     11316     11319     11320
     11318     11316     11319     11320     11319     11320     11322     11323
     11319     11320     11322     11324     11319     11320     11322     11372
     11320     11322     11372     11373     11320     11322     11372     11374
     11320     11322     11372     11375     11321     11320     11322     11323
     11321     11320     11322     11324     11321     11320     11322     11372
     11322     11372     11375     11376     11322     11372     11375     11377
     11322     11372     11375     11378     11323     11322     11372     11373
     11323     11322     11372     11374     11323     11322     11372     11375
     11324     11322     11372     11373     11324     11322     11372     11374
     11324     11322     11372     11375     11325     11328     11331     11332
     11325     11328     11331     11333     11325     11328     11331     11334
     11326     11325     11328     11329     11326     11325     11328     11330
     11326     11325     11328     11331     11327     11325     11328     11329
     11327     11325     11328     11330     11327     11325     11328     11331
     11328     11331     11334     11335     11328     11331     11334     11336
     11328     11331     11334     11337     11329     11328     11331     11332
     11329     11328     11331     11333     11329     11328     11331     11334
     11330     11328     11331     11332     11330     11328     11331     11333
     11330     11328     11331     11334     11331     11334     11337     11338
     11331     11334     11337     11339     11331     11334     11337     11340
     11332     11331     11334     11335     11332     11331     11334     11336
     11332     11331     11334     11337     11333     11331     11334     11335
     11333     11331     11334     11336     11333     11331     11334     11337
     11334     11337     11340     11341     11334     11337     11340     11342
     11334     11337     11340     11343     11335     11334     11337     11338
     11335     11334     11337     11339     11335     11334     11337     11340
     11336     11334     11337     11338     11336     11334     11337     11339
     11336     11334     11337     11340     11337     11340     11343     11344
     11337     11340     11343     11345     11338     11337     11340     11341
     11338     11337     11340     11342     11338     11337     11340     11343
     11339     11337     11340     11341     11339     11337     11340     11342
     11339     11337     11340     11343     11340     11343     11345     11346
     11340     11343     11345     11347     11341     11340     11343     11344
     11341     11340     11343     11345     11342     11340     11343     11344
     11342     11340     11343     11345     11343     11345     11347     11348
     11343     11345     11347     11349     11343     11345     11347     11350
     11344     11343     11345     11346     11344     11343     11345     11347
     11345     11347     11350     11351     11345     11347     11350     11352
     11345     11347     11350     11353     11346     11345     11347     11348
     11346     11345     11347     11349     11346     11345     11347     11350
     11347     11350     11353     11354     11347     11350     11353     11355
     11347     11350     11353     11356     11348     11347     11350     11351
     11348     11347     11350     11352     11348     11347     11350     11353
     11349     11347     11350     11351     11349     11347     11350     11352
     11349     11347     11350     11353     11350     11353     11356     11357
     11350     11353     11356     11358     11350     11353     11356     11359
     11351     11350     11353     11354     11351     11350     11353     11355
     11351     11350     11353     11356     11352     11350     11353     11354
     11352     11350     11353     11355     11352     11350     11353     11356
     11353     11356     11359     11360     11353     11356     11359     11361
     11353     11356     11359     11362     11354     11353     11356     11357
     11354     11353     11356     11358     11354     11353     11356     11359
     11355     11353     11356     11357     11355     11353     11356     11358
     11355     11353     11356     11359     11356     11359     11362     11363
     11356     11359     11362     11364     11356     11359     11362     11365
     11357     11356     11359     11360     11357     11356     11359     11361
     11357     11356     11359     11362     11358     11356     11359     11360
     11358     11356     11359     11361     11358     11356     11359     11362
     11359     11362     11365     11366     11359     11362     11365     11367
     11359     11362     11365     11368     11360     11359     11362     11363
     11360     11359     11362     11364     11360     11359     11362     11365
     11361     11359     11362     11363     11361     11359     11362     11364
     11361     11359     11362     11365     11362     11365     11368     11369
     11362     11365     11368     11370     11362     11365     11368     11371
     11363     11362     11365     11366     11363     11362     11365     11367
     11363     11362     11365     11368     11364     11362     11365     11366
     11364     11362     11365     11367     11364     11362     11365     11368
     11366     11365     11368     11369     11366     11365     11368     11370
     11366     11365     11368     11371     11367     11365     11368     11369
     11367     11365     11368     11370     11367     11365     11368     11371
     11372     11375     11378     11379     11372     11375     11378     11380
     11372     11375     11378     11381     11373     11372     11375     11376
     11373     11372     11375     11377     11373     11372     11375     11378
     11374     11372     11375     11376     11374     11372     11375     11377
     11374     11372     11375     11378     11375     11378     11381     11382
     11375     11378     11381     11383     11375     11378     11381     11384
     11376     11375     11378     11379     11376     11375     11378     11380
     11376     11375     11378     11381     11377     11375     11378     11379
     11377     11375     11378     11380     11377     11375     11378     11381
     11378     11381     11384     11385     11378     11381     11384     11386
     11378     11381     11384     11387     11379     11378     11381     11382
     11379     11378     11381     11383     11379     11378     11381     11384
     11380     11378     11381     11382     11380     11378     11381     11383
     11380     11378     11381     11384     11381     11384     11387     11388
     11381     11384     11387     11389     11381     11384     11387     11390
     11382     11381     11384     11385     11382     11381     11384     11386
     11382     11381     11384     11387     11383     11381     11384     11385
     11383     11381     11384     11386     11383     11381     11384     11387
     11384     11387     11390     11391     11384     11387     11390     11392
     11384     11387     11390     11393     11385     11384     11387     11388
     11385     11384     11387     11389     11385     11384     11387     11390
     11386     11384     11387     11388     11386     11384     11387     11389
     11386     11384     11387     11390     11387     11390     11393     11394
     11387     11390     11393     11395     11387     11390     11393     11396
     11388     11387     11390     11391     11388     11387     11390     11392
     11388     11387     11390     11393     11389     11387     11390     11391
     11389     11387     11390     11392     11389     11387     11390     11393
     11390     11393     11396     11397     11390     11393     11396     11398
     11390     11393     11396     11399     11391     11390     11393     11394
     11391     11390     11393     11395     11391     11390     11393     11396
     11392     11390     11393     11394     11392     11390     11393     11395
     11392     11390     11393     11396     11393     11396     11399     11400
     11393     11396     11399     11401     11393     11396     11399     11402
     11394     11393     11396     11397     11394     11393     11396     11398
     11394     11393     11396     11399     11395     11393     11396     11397
     11395     11393     11396     11398     11395     11393     11396     11399
     11396     11399     11402     11403     11396     11399     11402     11404
     11396     11399     11402     11405     11397     11396     11399     11400
     11397     11396     11399     11401     11397     11396     11399     11402
     11398     11396     11399     11400     11398     11396     11399     11401
     11398     11396     11399     11402     11399     11402     11405     11406
     11399     11402     11405     11407     11399     11402     11405     11408
     11400     11399     11402     11403     11400     11399     11402     11404
     11400     11399     11402     11405     11401     11399     11402     11403
     11401     11399     11402     11404     11401     11399     11402     11405
     11402     11405     11408     11409     11402     11405     11408     11410
     11402     11405     11408     11411     11403     11402     11405     11406
     11403     11402     11405     11407     11403     11402     11405     11408
     11404     11402     11405     11406     11404     11402     11405     11407
     11404     11402     11405     11408     11405     11408     11411     11412
     11405     11408     11411     11413     11405     11408     11411     11414
     11406     11405     11408     11409     11406     11405     11408     11410
     11406     11405     11408     11411     11407     11405     11408     11409
     11407     11405     11408     11410     11407     11405     11408     11411
     11409     11408     11411     11412     11409     11408     11411     11413
     11409     11408     11411     11414     11410     11408     11411     11412
     11410     11408     11411     11413     11410     11408     11411     11414
     11415     11419     11421     11422     11415     11419     11421     11423
     11415     11419     11424     11425     11415     11419     11424     11426
     11415     11419     11424     11430     11416     11415     11419     11420
     11416     11415     11419     11421     11416     11415     11419     11424
     11417     11415     11419     11420     11417     11415     11419     11421
     11417     11415     11419     11424     11418     11415     11419     11420
     11418     11415     11419     11421     11418     11415     11419     11424
     11419     11424     11430     11427     11420     11419     11421     11422
     11420     11419     11421     11423     11420     11419     11424     11425
     11420     11419     11424     11426     11420     11419     11424     11430
     11421     11419     11424     11425     11421     11419     11424     11426
     11421     11419     11424     11430     11422     11421     11419     11424
     11423     11421     11419     11424     11424     11430     11427     11428
     11424     11430     11427     11429     11424     11430     11427     11431
     11425     11424     11430     11427     11426     11424     11430     11427
     11427     11431     11432     11433     11427     11431     11432     11434
     11427     11431     11432     11435     11428     11427     11431     11432
     11429     11427     11431     11432     11430     11427     11431     11432
     11431     11432     11435     11436     11431     11432     11435     11437
     11431     11432     11435     11443     11432     11435     11437     11438
     11432     11435     11443     11444     11432     11435     11443     11445
     11432     11435     11443     11446     11433     11432     11435     11436
     11433     11432     11435     11437     11433     11432     11435     11443
     11434     11432     11435     11436     11434     11432     11435     11437
     11434     11432     11435     11443     11435     11437     11438     11439
     11435     11437     11438     11440     11435     11443     11446     11447
     11436     11435     11437     11438     11436     11435     11443     11444
     11436     11435     11443     11445     11436     11435     11443     11446
     11437     11435     11443     11444     11437     11435     11443     11445
     11437     11435     11443     11446     11437     11438     11440     11441
     11437     11438     11440     11442     11437     11438     11440     11452
     11438     11437     11435     11443     11438     11440     11452     11453
     11438     11440     11452     11454     11438     11440     11452     11455
     11439     11438     11440     11441     11439     11438     11440     11442
     11439     11438     11440     11452     11440     11452     11455     11456
     11440     11452     11455     11457     11440     11452     11455     11458
     11441     11440     11452     11453     11441     11440     11452     11454
     11441     11440     11452     11455     11442     11440     11452     11453
     11442     11440     11452     11454     11442     11440     11452     11455
     11443     11446     11447     11448     11443     11446     11447     11449
     11444     11443     11446     11447     11445     11443     11446     11447
     11446     11447     11449     11450     11446     11447     11449     11451
     11446     11447     11449     11499     11447     11449     11499     11500
     11447     11449     11499     11501     11447     11449     11499     11502
     11448     11447     11449     11450     11448     11447     11449     11451
     11448     11447     11449     11499     11449     11499     11502     11503
     11449     11499     11502     11504     11449     11499     11502     11505
     11450     11449     11499     11500     11450     11449     11499     11501
     11450     11449     11499     11502     11451     11449     11499     11500
     11451     11449     11499     11501     11451     11449     11499     11502
     11452     11455     11458     11459     11452     11455     11458     11460
     11452     11455     11458     11461     11453     11452     11455     11456
     11453     11452     11455     11457     11453     11452     11455     11458
     11454     11452     11455     11456     11454     11452     11455     11457
     11454     11452     11455     11458     11455     11458     11461     11462
     11455     11458     11461     11463     11455     11458     11461     11464
     11456     11455     11458     11459     11456     11455     11458     11460
     11456     11455     11458     11461     11457     11455     11458     11459
     11457     11455     11458     11460     11457     11455     11458     11461
     11458     11461     11464     11465     11458     11461     11464     11466
     11458     11461     11464     11467     11459     11458     11461     11462
     11459     11458     11461     11463     11459     11458     11461     11464
     11460     11458     11461     11462     11460     11458     11461     11463
     11460     11458     11461     11464     11461     11464     11467     11468
     11461     11464     11467     11469     11461     11464     11467     11470
     11462     11461     11464     11465     11462     11461     11464     11466
     11462     11461     11464     11467     11463     11461     11464     11465
     11463     11461     11464     11466     11463     11461     11464     11467
     11464     11467     11470     11471     11464     11467     11470     11472
     11465     11464     11467     11468     11465     11464     11467     11469
     11465     11464     11467     11470     11466     11464     11467     11468
     11466     11464     11467     11469     11466     11464     11467     11470
     11467     11470     11472     11473     11467     11470     11472     11474
     11468     11467     11470     11471     11468     11467     11470     11472
     11469     11467     11470     11471     11469     11467     11470     11472
     11470     11472     11474     11475     11470     11472     11474     11476
     11470     11472     11474     11477     11471     11470     11472     11473
     11471     11470     11472     11474     11472     11474     11477     11478
     11472     11474     11477     11479     11472     11474     11477     11480
     11473     11472     11474     11475     11473     11472     11474     11476
     11473     11472     11474     11477     11474     11477     11480     11481
     11474     11477     11480     11482     11474     11477     11480     11483
     11475     11474     11477     11478     11475     11474     11477     11479
     11475     11474     11477     11480     11476     11474     11477     11478
     11476     11474     11477     11479     11476     11474     11477     11480
     11477     11480     11483     11484     11477     11480     11483     11485
     11477     11480     11483     11486     11478     11477     11480     11481
     11478     11477     11480     11482     11478     11477     11480     11483
     11479     11477     11480     11481     11479     11477     11480     11482
     11479     11477     11480     11483     11480     11483     11486     11487
     11480     11483     11486     11488     11480     11483     11486     11489
     11481     11480     11483     11484     11481     11480     11483     11485
     11481     11480     11483     11486     11482     11480     11483     11484
     11482     11480     11483     11485     11482     11480     11483     11486
     11483     11486     11489     11490     11483     11486     11489     11491
     11483     11486     11489     11492     11484     11483     11486     11487
     11484     11483     11486     11488     11484     11483     11486     11489
     11485     11483     11486     11487     11485     11483     11486     11488
     11485     11483     11486     11489     11486     11489     11492     11493
     11486     11489     11492     11494     11486     11489     11492     11495
     11487     11486     11489     11490     11487     11486     11489     11491
     11487     11486     11489     11492     11488     11486     11489     11490
     11488     11486     11489     11491     11488     11486     11489     11492
     11489     11492     11495     11496     11489     11492     11495     11497
     11489     11492     11495     11498     11490     11489     11492     11493
     11490     11489     11492     11494     11490     11489     11492     11495
     11491     11489     11492     11493     11491     11489     11492     11494
     11491     11489     11492     11495     11493     11492     11495     11496
     11493     11492     11495     11497     11493     11492     11495     11498
     11494     11492     11495     11496     11494     11492     11495     11497
     11494     11492     11495     11498     11499     11502     11505     11506
     11499     11502     11505     11507     11499     11502     11505     11508
     11500     11499     11502     11503     11500     11499     11502     11504
     11500     11499     11502     11505     11501     11499     11502     11503
     11501     11499     11502     11504     11501     11499     11502     11505
     11502     11505     11508     11509     11502     11505     11508     11510
     11502     11505     11508     11511     11503     11502     11505     11506
     11503     11502     11505     11507     11503     11502     11505     11508
     11504     11502     11505     11506     11504     11502     11505     11507
     11504     11502     11505     11508     11505     11508     11511     11512
     11505     11508     11511     11513     11505     11508     11511     11514
     11506     11505     11508     11509     11506     11505     11508     11510
     11506     11505     11508     11511     11507     11505     11508     11509
     11507     11505     11508     11510     11507     11505     11508     11511
     11508     11511     11514     11515     11508     11511     11514     11516
     11508     11511     11514     11517     11509     11508     11511     11512
     11509     11508     11511     11513     11509     11508     11511     11514
     11510     11508     11511     11512     11510     11508     11511     11513
     11510     11508     11511     11514     11511     11514     11517     11518
     11511     11514     11517     11519     11511     11514     11517     11520
     11512     11511     11514     11515     11512     11511     11514     11516
     11512     11511     11514     11517     11513     11511     11514     11515
     11513     11511     11514     11516     11513     11511     11514     11517
     11514     11517     11520     11521     11514     11517     11520     11522
     11514     11517     11520     11523     11515     11514     11517     11518
     11515     11514     11517     11519     11515     11514     11517     11520
     11516     11514     11517     11518     11516     11514     11517     11519
     11516     11514     11517     11520     11517     11520     11523     11524
     11517     11520     11523     11525     11517     11520     11523     11526
     11518     11517     11520     11521     11518     11517     11520     11522
     11518     11517     11520     11523     11519     11517     11520     11521
     11519     11517     11520     11522     11519     11517     11520     11523
     11520     11523     11526     11527     11520     11523     11526     11528
     11520     11523     11526     11529     11521     11520     11523     11524
     11521     11520     11523     11525     11521     11520     11523     11526
     11522     11520     11523     11524     11522     11520     11523     11525
     11522     11520     11523     11526     11523     11526     11529     11530
     11523     11526     11529     11531     11523     11526     11529     11532
     11524     11523     11526     11527     11524     11523     11526     11528
     11524     11523     11526     11529     11525     11523     11526     11527
     11525     11523     11526     11528     11525     11523     11526     11529
     11526     11529     11532     11533     11526     11529     11532     11534
     11526     11529     11532     11535     11527     11526     11529     11530
     11527     11526     11529     11531     11527     11526     11529     11532
     11528     11526     11529     11530     11528     11526     11529     11531
     11528     11526     11529     11532     11529     11532     11535     11536
     11529     11532     11535     11537     11529     11532     11535     11538
     11530     11529     11532     11533     11530     11529     11532     11534
     11530     11529     11532     11535     11531     11529     11532     11533
     11531     11529     11532     11534     11531     11529     11532     11535
     11532     11535     11538     11539     11532     11535     11538     11540
     11532     11535     11538     11541     11533     11532     11535     11536
     11533     11532     11535     11537     11533     11532     11535     11538
     11534     11532     11535     11536     11534     11532     11535     11537
     11534     11532     11535     11538     11536     11535     11538     11539
     11536     11535     11538     11540     11536     11535     11538     11541
     11537     11535     11538     11539     11537     11535     11538     11540
     11537     11535     11538     11541     11542     11543     11558     11559
     11542     11543     11558     11560     11542     11543     11558     11564
     11543     11542     11546     11547     11543     11542     11546     11548
     11543     11542     11546     11549     11543     11542     11550     11551
     11543     11542     11550     11552     11543     11542     11550     11553
     11543     11542     11554     11555     11543     11542     11554     11556
     11543     11542     11554     11557     11543     11558     11564     11561
     11544     11543     11542     11546     11544     11543     11542     11550
     11544     11543     11542     11554     11544     11543     11558     11559
     11544     11543     11558     11560     11544     11543     11558     11564
     11545     11543     11542     11546     11545     11543     11542     11550
     11545     11543     11542     11554     11545     11543     11558     11559
     11545     11543     11558     11560     11545     11543     11558     11564
     11546     11542     11543     11558     11546     11542     11550     11551
     11546     11542     11550     11552     11546     11542     11550     11553
     11546     11542     11554     11555     11546     11542     11554     11556
     11546     11542     11554     11557     11547     11546     11542     11550
     11547     11546     11542     11554     11548     11546     11542     11550
     11548     11546     11542     11554     11549     11546     11542     11550
     11549     11546     11542     11554     11550     11542     11543     11558
     11550     11542     11554     11555     11550     11542     11554     11556
     11550     11542     11554     11557     11551     11550     11542     11554
     11552     11550     11542     11554     11553     11550     11542     11554
     11554     11542     11543     11558     11558     11564     11561     11562
     11558     11564     11561     11563     11558     11564     11561     11565
     11559     11558     11564     11561     11560     11558     11564     11561
     11561     11565     11566     11567     11561     11565     11566     11568
     11561     11565     11566     11569     11562     11561     11565     11566
     11563     11561     11565     11566     11564     11561     11565     11566
     11565     11566     11569     11570     11565     11566     11569     11571
     11565     11566     11569     11577     11566     11569     11571     11572
     11566     11569     11577     11578     11566     11569     11577     11579
     11566     11569     11577     11580     11567     11566     11569     11570
     11567     11566     11569     11571     11567     11566     11569     11577
     11568     11566     11569     11570     11568     11566     11569     11571
     11568     11566     11569     11577     11569     11571     11572     11573
     11569     11571     11572     11574     11569     11577     11580     11581
     11570     11569     11571     11572     11570     11569     11577     11578
     11570     11569     11577     11579     11570     11569     11577     11580
     11571     11569     11577     11578     11571     11569     11577     11579
     11571     11569     11577     11580     11571     11572     11574     11575
     11571     11572     11574     11576     11571     11572     11574     11586
     11572     11571     11569     11577     11572     11574     11586     11587
     11572     11574     11586     11588     11572     11574     11586     11589
     11573     11572     11574     11575     11573     11572     11574     11576
     11573     11572     11574     11586     11574     11586     11589     11590
     11574     11586     11589     11591     11574     11586     11589     11592
     11575     11574     11586     11587     11575     11574     11586     11588
     11575     11574     11586     11589     11576     11574     11586     11587
     11576     11574     11586     11588     11576     11574     11586     11589
     11577     11580     11581     11582     11577     11580     11581     11583
     11578     11577     11580     11581     11579     11577     11580     11581
     11580     11581     11583     11584     11580     11581     11583     11585
     11580     11581     11583     11633     11581     11583     11633     11634
     11581     11583     11633     11635     11581     11583     11633     11636
     11582     11581     11583     11584     11582     11581     11583     11585
     11582     11581     11583     11633     11583     11633     11636     11637
     11583     11633     11636     11638     11583     11633     11636     11639
     11584     11583     11633     11634     11584     11583     11633     11635
     11584     11583     11633     11636     11585     11583     11633     11634
     11585     11583     11633     11635     11585     11583     11633     11636
     11586     11589     11592     11593     11586     11589     11592     11594
     11586     11589     11592     11595     11587     11586     11589     11590
     11587     11586     11589     11591     11587     11586     11589     11592
     11588     11586     11589     11590     11588     11586     11589     11591
     11588     11586     11589     11592     11589     11592     11595     11596
     11589     11592     11595     11597     11589     11592     11595     11598
     11590     11589     11592     11593     11590     11589     11592     11594
     11590     11589     11592     11595     11591     11589     11592     11593
     11591     11589     11592     11594     11591     11589     11592     11595
     11592     11595     11598     11599     11592     11595     11598     11600
     11592     11595     11598     11601     11593     11592     11595     11596
     11593     11592     11595     11597     11593     11592     11595     11598
     11594     11592     11595     11596     11594     11592     11595     11597
     11594     11592     11595     11598     11595     11598     11601     11602
     11595     11598     11601     11603     11595     11598     11601     11604
     11596     11595     11598     11599     11596     11595     11598     11600
     11596     11595     11598     11601     11597     11595     11598     11599
     11597     11595     11598     11600     11597     11595     11598     11601
     11598     11601     11604     11605     11598     11601     11604     11606
     11599     11598     11601     11602     11599     11598     11601     11603
     11599     11598     11601     11604     11600     11598     11601     11602
     11600     11598     11601     11603     11600     11598     11601     11604
     11601     11604     11606     11607     11601     11604     11606     11608
     11602     11601     11604     11605     11602     11601     11604     11606
     11603     11601     11604     11605     11603     11601     11604     11606
     11604     11606     11608     11609     11604     11606     11608     11610
     11604     11606     11608     11611     11605     11604     11606     11607
     11605     11604     11606     11608     11606     11608     11611     11612
     11606     11608     11611     11613     11606     11608     11611     11614
     11607     11606     11608     11609     11607     11606     11608     11610
     11607     11606     11608     11611     11608     11611     11614     11615
     11608     11611     11614     11616     11608     11611     11614     11617
     11609     11608     11611     11612     11609     11608     11611     11613
     11609     11608     11611     11614     11610     11608     11611     11612
     11610     11608     11611     11613     11610     11608     11611     11614
     11611     11614     11617     11618     11611     11614     11617     11619
     11611     11614     11617     11620     11612     11611     11614     11615
     11612     11611     11614     11616     11612     11611     11614     11617
     11613     11611     11614     11615     11613     11611     11614     11616
     11613     11611     11614     11617     11614     11617     11620     11621
     11614     11617     11620     11622     11614     11617     11620     11623
     11615     11614     11617     11618     11615     11614     11617     11619
     11615     11614     11617     11620     11616     11614     11617     11618
     11616     11614     11617     11619     11616     11614     11617     11620
     11617     11620     11623     11624     11617     11620     11623     11625
     11617     11620     11623     11626     11618     11617     11620     11621
     11618     11617     11620     11622     11618     11617     11620     11623
     11619     11617     11620     11621     11619     11617     11620     11622
     11619     11617     11620     11623     11620     11623     11626     11627
     11620     11623     11626     11628     11620     11623     11626     11629
     11621     11620     11623     11624     11621     11620     11623     11625
     11621     11620     11623     11626     11622     11620     11623     11624
     11622     11620     11623     11625     11622     11620     11623     11626
     11623     11626     11629     11630     11623     11626     11629     11631
     11623     11626     11629     11632     11624     11623     11626     11627
     11624     11623     11626     11628     11624     11623     11626     11629
     11625     11623     11626     11627     11625     11623     11626     11628
     11625     11623     11626     11629     11627     11626     11629     11630
     11627     11626     11629     11631     11627     11626     11629     11632
     11628     11626     11629     11630     11628     11626     11629     11631
     11628     11626     11629     11632     11633     11636     11639     11640
     11633     11636     11639     11641     11633     11636     11639     11642
     11634     11633     11636     11637     11634     11633     11636     11638
     11634     11633     11636     11639     11635     11633     11636     11637
     11635     11633     11636     11638     11635     11633     11636     11639
     11636     11639     11642     11643     11636     11639     11642     11644
     11636     11639     11642     11645     11637     11636     11639     11640
     11637     11636     11639     11641     11637     11636     11639     11642
     11638     11636     11639     11640     11638     11636     11639     11641
     11638     11636     11639     11642     11639     11642     11645     11646
     11639     11642     11645     11647     11639     11642     11645     11648
     11640     11639     11642     11643     11640     11639     11642     11644
     11640     11639     11642     11645     11641     11639     11642     11643
     11641     11639     11642     11644     11641     11639     11642     11645
     11642     11645     11648     11649     11642     11645     11648     11650
     11642     11645     11648     11651     11643     11642     11645     11646
     11643     11642     11645     11647     11643     11642     11645     11648
     11644     11642     11645     11646     11644     11642     11645     11647
     11644     11642     11645     11648     11645     11648     11651     11652
     11645     11648     11651     11653     11645     11648     11651     11654
     11646     11645     11648     11649     11646     11645     11648     11650
     11646     11645     11648     11651     11647     11645     11648     11649
     11647     11645     11648     11650     11647     11645     11648     11651
     11648     11651     11654     11655     11648     11651     11654     11656
     11648     11651     11654     11657     11649     11648     11651     11652
     11649     11648     11651     11653     11649     11648     11651     11654
     11650     11648     11651     11652     11650     11648     11651     11653
     11650     11648     11651     11654     11651     11654     11657     11658
     11651     11654     11657     11659     11651     11654     11657     11660
     11652     11651     11654     11655     11652     11651     11654     11656
     11652     11651     11654     11657     11653     11651     11654     11655
     11653     11651     11654     11656     11653     11651     11654     11657
     11654     11657     11660     11661     11654     11657     11660     11662
     11654     11657     11660     11663     11655     11654     11657     11658
     11655     11654     11657     11659     11655     11654     11657     11660
     11656     11654     11657     11658     11656     11654     11657     11659
     11656     11654     11657     11660     11657     11660     11663     11664
     11657     11660     11663     11665     11657     11660     11663     11666
     11658     11657     11660     11661     11658     11657     11660     11662
     11658     11657     11660     11663     11659     11657     11660     11661
     11659     11657     11660     11662     11659     11657     11660     11663
     11660     11663     11666     11667     11660     11663     11666     11668
     11660     11663     11666     11669     11661     11660     11663     11664
     11661     11660     11663     11665     11661     11660     11663     11666
     11662     11660     11663     11664     11662     11660     11663     11665
     11662     11660     11663     11666     11663     11666     11669     11670
     11663     11666     11669     11671     11663     11666     11669     11672
     11664     11663     11666     11667     11664     11663     11666     11668
     11664     11663     11666     11669     11665     11663     11666     11667
     11665     11663     11666     11668     11665     11663     11666     11669
     11666     11669     11672     11673     11666     11669     11672     11674
     11666     11669     11672     11675     11667     11666     11669     11670
     11667     11666     11669     11671     11667     11666     11669     11672
     11668     11666     11669     11670     11668     11666     11669     11671
     11668     11666     11669     11672     11670     11669     11672     11673
     11670     11669     11672     11674     11670     11669     11672     11675
     11671     11669     11672     11673     11671     11669     11672     11674
     11671     11669     11672     11675     11676     11677     11692     11693
     11676     11677     11692     11694     11676     11677     11692     11698
     11677     11676     11680     11681     11677     11676     11680     11682
     11677     11676     11680     11683     11677     11676     11684     11685
     11677     11676     11684     11686     11677     11676     11684     11687
     11677     11676     11688     11689     11677     11676     11688     11690
     11677     11676     11688     11691     11677     11692     11698     11695
     11678     11677     11676     11680     11678     11677     11676     11684
     11678     11677     11676     11688     11678     11677     11692     11693
     11678     11677     11692     11694     11678     11677     11692     11698
     11679     11677     11676     11680     11679     11677     11676     11684
     11679     11677     11676     11688     11679     11677     11692     11693
     11679     11677     11692     11694     11679     11677     11692     11698
     11680     11676     11677     11692     11680     11676     11684     11685
     11680     11676     11684     11686     11680     11676     11684     11687
     11680     11676     11688     11689     11680     11676     11688     11690
     11680     11676     11688     11691     11681     11680     11676     11684
     11681     11680     11676     11688     11682     11680     11676     11684
     11682     11680     11676     11688     11683     11680     11676     11684
     11683     11680     11676     11688     11684     11676     11677     11692
     11684     11676     11688     11689     11684     11676     11688     11690
     11684     11676     11688     11691     11685     11684     11676     11688
     11686     11684     11676     11688     11687     11684     11676     11688
     11688     11676     11677     11692     11692     11698     11695     11696
     11692     11698     11695     11697     11692     11698     11695     11699
     11693     11692     11698     11695     11694     11692     11698     11695
     11695     11699     11700     11701     11695     11699     11700     11702
     11695     11699     11700     11703     11696     11695     11699     11700
     11697     11695     11699     11700     11698     11695     11699     11700
     11699     11700     11703     11704     11699     11700     11703     11705
     11699     11700     11703     11711     11700     11703     11705     11706
     11700     11703     11711     11712     11700     11703     11711     11713
     11700     11703     11711     11714     11701     11700     11703     11704
     11701     11700     11703     11705     11701     11700     11703     11711
     11702     11700     11703     11704     11702     11700     11703     11705
     11702     11700     11703     11711     11703     11705     11706     11707
     11703     11705     11706     11708     11703     11711     11714     11715
     11704     11703     11705     11706     11704     11703     11711     11712
     11704     11703     11711     11713     11704     11703     11711     11714
     11705     11703     11711     11712     11705     11703     11711     11713
     11705     11703     11711     11714     11705     11706     11708     11709
     11705     11706     11708     11710     11705     11706     11708     11720
     11706     11705     11703     11711     11706     11708     11720     11721
     11706     11708     11720     11722     11706     11708     11720     11723
     11707     11706     11708     11709     11707     11706     11708     11710
     11707     11706     11708     11720     11708     11720     11723     11724
     11708     11720     11723     11725     11708     11720     11723     11726
     11709     11708     11720     11721     11709     11708     11720     11722
     11709     11708     11720     11723     11710     11708     11720     11721
     11710     11708     11720     11722     11710     11708     11720     11723
     11711     11714     11715     11716     11711     11714     11715     11717
     11712     11711     11714     11715     11713     11711     11714     11715
     11714     11715     11717     11718     11714     11715     11717     11719
     11714     11715     11717     11767     11715     11717     11767     11768
     11715     11717     11767     11769     11715     11717     11767     11770
     11716     11715     11717     11718     11716     11715     11717     11719
     11716     11715     11717     11767     11717     11767     11770     11771
     11717     11767     11770     11772     11717     11767     11770     11773
     11718     11717     11767     11768     11718     11717     11767     11769
     11718     11717     11767     11770     11719     11717     11767     11768
     11719     11717     11767     11769     11719     11717     11767     11770
     11720     11723     11726     11727     11720     11723     11726     11728
     11720     11723     11726     11729     11721     11720     11723     11724
     11721     11720     11723     11725     11721     11720     11723     11726
     11722     11720     11723     11724     11722     11720     11723     11725
     11722     11720     11723     11726     11723     11726     11729     11730
     11723     11726     11729     11731     11723     11726     11729     11732
     11724     11723     11726     11727     11724     11723     11726     11728
     11724     11723     11726     11729     11725     11723     11726     11727
     11725     11723     11726     11728     11725     11723     11726     11729
     11726     11729     11732     11733     11726     11729     11732     11734
     11726     11729     11732     11735     11727     11726     11729     11730
     11727     11726     11729     11731     11727     11726     11729     11732
     11728     11726     11729     11730     11728     11726     11729     11731
     11728     11726     11729     11732     11729     11732     11735     11736
     11729     11732     11735     11737     11729     11732     11735     11738
     11730     11729     11732     11733     11730     11729     11732     11734
     11730     11729     11732     11735     11731     11729     11732     11733
     11731     11729     11732     11734     11731     11729     11732     11735
     11732     11735     11738     11739     11732     11735     11738     11740
     11733     11732     11735     11736     11733     11732     11735     11737
     11733     11732     11735     11738     11734     11732     11735     11736
     11734     11732     11735     11737     11734     11732     11735     11738
     11735     11738     11740     11741     11735     11738     11740     11742
     11736     11735     11738     11739     11736     11735     11738     11740
     11737     11735     11738     11739     11737     11735     11738     11740
     11738     11740     11742     11743     11738     11740     11742     11744
     11738     11740     11742     11745     11739     11738     11740     11741
     11739     11738     11740     11742     11740     11742     11745     11746
     11740     11742     11745     11747     11740     11742     11745     11748
     11741     11740     11742     11743     11741     11740     11742     11744
     11741     11740     11742     11745     11742     11745     11748     11749
     11742     11745     11748     11750     11742     11745     11748     11751
     11743     11742     11745     11746     11743     11742     11745     11747
     11743     11742     11745     11748     11744     11742     11745     11746
     11744     11742     11745     11747     11744     11742     11745     11748
     11745     11748     11751     11752     11745     11748     11751     11753
     11745     11748     11751     11754     11746     11745     11748     11749
     11746     11745     11748     11750     11746     11745     11748     11751
     11747     11745     11748     11749     11747     11745     11748     11750
     11747     11745     11748     11751     11748     11751     11754     11755
     11748     11751     11754     11756     11748     11751     11754     11757
     11749     11748     11751     11752     11749     11748     11751     11753
     11749     11748     11751     11754     11750     11748     11751     11752
     11750     11748     11751     11753     11750     11748     11751     11754
     11751     11754     11757     11758     11751     11754     11757     11759
     11751     11754     11757     11760     11752     11751     11754     11755
     11752     11751     11754     11756     11752     11751     11754     11757
     11753     11751     11754     11755     11753     11751     11754     11756
     11753     11751     11754     11757     11754     11757     11760     11761
     11754     11757     11760     11762     11754     11757     11760     11763
     11755     11754     11757     11758     11755     11754     11757     11759
     11755     11754     11757     11760     11756     11754     11757     11758
     11756     11754     11757     11759     11756     11754     11757     11760
     11757     11760     11763     11764     11757     11760     11763     11765
     11757     11760     11763     11766     11758     11757     11760     11761
     11758     11757     11760     11762     11758     11757     11760     11763
     11759     11757     11760     11761     11759     11757     11760     11762
     11759     11757     11760     11763     11761     11760     11763     11764
     11761     11760     11763     11765     11761     11760     11763     11766
     11762     11760     11763     11764     11762     11760     11763     11765
     11762     11760     11763     11766     11767     11770     11773     11774
     11767     11770     11773     11775     11767     11770     11773     11776
     11768     11767     11770     11771     11768     11767     11770     11772
     11768     11767     11770     11773     11769     11767     11770     11771
     11769     11767     11770     11772     11769     11767     11770     11773
     11770     11773     11776     11777     11770     11773     11776     11778
     11770     11773     11776     11779     11771     11770     11773     11774
     11771     11770     11773     11775     11771     11770     11773     11776
     11772     11770     11773     11774     11772     11770     11773     11775
     11772     11770     11773     11776     11773     11776     11779     11780
     11773     11776     11779     11781     11773     11776     11779     11782
     11774     11773     11776     11777     11774     11773     11776     11778
     11774     11773     11776     11779     11775     11773     11776     11777
     11775     11773     11776     11778     11775     11773     11776     11779
     11776     11779     11782     11783     11776     11779     11782     11784
     11776     11779     11782     11785     11777     11776     11779     11780
     11777     11776     11779     11781     11777     11776     11779     11782
     11778     11776     11779     11780     11778     11776     11779     11781
     11778     11776     11779     11782     11779     11782     11785     11786
     11779     11782     11785     11787     11779     11782     11785     11788
     11780     11779     11782     11783     11780     11779     11782     11784
     11780     11779     11782     11785     11781     11779     11782     11783
     11781     11779     11782     11784     11781     11779     11782     11785
     11782     11785     11788     11789     11782     11785     11788     11790
     11782     11785     11788     11791     11783     11782     11785     11786
     11783     11782     11785     11787     11783     11782     11785     11788
     11784     11782     11785     11786     11784     11782     11785     11787
     11784     11782     11785     11788     11785     11788     11791     11792
     11785     11788     11791     11793     11785     11788     11791     11794
     11786     11785     11788     11789     11786     11785     11788     11790
     11786     11785     11788     11791     11787     11785     11788     11789
     11787     11785     11788     11790     11787     11785     11788     11791
     11788     11791     11794     11795     11788     11791     11794     11796
     11788     11791     11794     11797     11789     11788     11791     11792
     11789     11788     11791     11793     11789     11788     11791     11794
     11790     11788     11791     11792     11790     11788     11791     11793
     11790     11788     11791     11794     11791     11794     11797     11798
     11791     11794     11797     11799     11791     11794     11797     11800
     11792     11791     11794     11795     11792     11791     11794     11796
     11792     11791     11794     11797     11793     11791     11794     11795
     11793     11791     11794     11796     11793     11791     11794     11797
     11794     11797     11800     11801     11794     11797     11800     11802
     11794     11797     11800     11803     11795     11794     11797     11798
     11795     11794     11797     11799     11795     11794     11797     11800
     11796     11794     11797     11798     11796     11794     11797     11799
     11796     11794     11797     11800     11797     11800     11803     11804
     11797     11800     11803     11805     11797     11800     11803     11806
     11798     11797     11800     11801     11798     11797     11800     11802
     11798     11797     11800     11803     11799     11797     11800     11801
     11799     11797     11800     11802     11799     11797     11800     11803
     11800     11803     11806     11807     11800     11803     11806     11808
     11800     11803     11806     11809     11801     11800     11803     11804
     11801     11800     11803     11805     11801     11800     11803     11806
     11802     11800     11803     11804     11802     11800     11803     11805
     11802     11800     11803     11806     11804     11803     11806     11807
     11804     11803     11806     11808     11804     11803     11806     11809
     11805     11803     11806     11807     11805     11803     11806     11808
     11805     11803     11806     11809     11810     11811     11826     11827
     11810     11811     11826     11828     11810     11811     11826     11832
     11811     11810     11814     11815     11811     11810     11814     11816
     11811     11810     11814     11817     11811     11810     11818     11819
     11811     11810     11818     11820     11811     11810     11818     11821
     11811     11810     11822     11823     11811     11810     11822     11824
     11811     11810     11822     11825     11811     11826     11832     11829
     11812     11811     11810     11814     11812     11811     11810     11818
     11812     11811     11810     11822     11812     11811     11826     11827
     11812     11811     11826     11828     11812     11811     11826     11832
     11813     11811     11810     11814     11813     11811     11810     11818
     11813     11811     11810     11822     11813     11811     11826     11827
     11813     11811     11826     11828     11813     11811     11826     11832
     11814     11810     11811     11826     11814     11810     11818     11819
     11814     11810     11818     11820     11814     11810     11818     11821
     11814     11810     11822     11823     11814     11810     11822     11824
     11814     11810     11822     11825     11815     11814     11810     11818
     11815     11814     11810     11822     11816     11814     11810     11818
     11816     11814     11810     11822     11817     11814     11810     11818
     11817     11814     11810     11822     11818     11810     11811     11826
     11818     11810     11822     11823     11818     11810     11822     11824
     11818     11810     11822     11825     11819     11818     11810     11822
     11820     11818     11810     11822     11821     11818     11810     11822
     11822     11810     11811     11826     11826     11832     11829     11830
     11826     11832     11829     11831     11826     11832     11829     11833
     11827     11826     11832     11829     11828     11826     11832     11829
     11829     11833     11834     11835     11829     11833     11834     11836
     11829     11833     11834     11837     11830     11829     11833     11834
     11831     11829     11833     11834     11832     11829     11833     11834
     11833     11834     11837     11838     11833     11834     11837     11839
     11833     11834     11837     11845     11834     11837     11839     11840
     11834     11837     11845     11846     11834     11837     11845     11847
     11834     11837     11845     11848     11835     11834     11837     11838
     11835     11834     11837     11839     11835     11834     11837     11845
     11836     11834     11837     11838     11836     11834     11837     11839
     11836     11834     11837     11845     11837     11839     11840     11841
     11837     11839     11840     11842     11837     11845     11848     11849
     11838     11837     11839     11840     11838     11837     11845     11846
     11838     11837     11845     11847     11838     11837     11845     11848
     11839     11837     11845     11846     11839     11837     11845     11847
     11839     11837     11845     11848     11839     11840     11842     11843
     11839     11840     11842     11844     11839     11840     11842     11854
     11840     11839     11837     11845     11840     11842     11854     11855
     11840     11842     11854     11856     11840     11842     11854     11857
     11841     11840     11842     11843     11841     11840     11842     11844
     11841     11840     11842     11854     11842     11854     11857     11858
     11842     11854     11857     11859     11842     11854     11857     11860
     11843     11842     11854     11855     11843     11842     11854     11856
     11843     11842     11854     11857     11844     11842     11854     11855
     11844     11842     11854     11856     11844     11842     11854     11857
     11845     11848     11849     11850     11845     11848     11849     11851
     11846     11845     11848     11849     11847     11845     11848     11849
     11848     11849     11851     11852     11848     11849     11851     11853
     11848     11849     11851     11901     11849     11851     11901     11902
     11849     11851     11901     11903     11849     11851     11901     11904
     11850     11849     11851     11852     11850     11849     11851     11853
     11850     11849     11851     11901     11851     11901     11904     11905
     11851     11901     11904     11906     11851     11901     11904     11907
     11852     11851     11901     11902     11852     11851     11901     11903
     11852     11851     11901     11904     11853     11851     11901     11902
     11853     11851     11901     11903     11853     11851     11901     11904
     11854     11857     11860     11861     11854     11857     11860     11862
     11854     11857     11860     11863     11855     11854     11857     11858
     11855     11854     11857     11859     11855     11854     11857     11860
     11856     11854     11857     11858     11856     11854     11857     11859
     11856     11854     11857     11860     11857     11860     11863     11864
     11857     11860     11863     11865     11857     11860     11863     11866
     11858     11857     11860     11861     11858     11857     11860     11862
     11858     11857     11860     11863     11859     11857     11860     11861
     11859     11857     11860     11862     11859     11857     11860     11863
     11860     11863     11866     11867     11860     11863     11866     11868
     11860     11863     11866     11869     11861     11860     11863     11864
     11861     11860     11863     11865     11861     11860     11863     11866
     11862     11860     11863     11864     11862     11860     11863     11865
     11862     11860     11863     11866     11863     11866     11869     11870
     11863     11866     11869     11871     11863     11866     11869     11872
     11864     11863     11866     11867     11864     11863     11866     11868
     11864     11863     11866     11869     11865     11863     11866     11867
     11865     11863     11866     11868     11865     11863     11866     11869
     11866     11869     11872     11873     11866     11869     11872     11874
     11867     11866     11869     11870     11867     11866     11869     11871
     11867     11866     11869     11872     11868     11866     11869     11870
     11868     11866     11869     11871     11868     11866     11869     11872
     11869     11872     11874     11875     11869     11872     11874     11876
     11870     11869     11872     11873     11870     11869     11872     11874
     11871     11869     11872     11873     11871     11869     11872     11874
     11872     11874     11876     11877     11872     11874     11876     11878
     11872     11874     11876     11879     11873     11872     11874     11875
     11873     11872     11874     11876     11874     11876     11879     11880
     11874     11876     11879     11881     11874     11876     11879     11882
     11875     11874     11876     11877     11875     11874     11876     11878
     11875     11874     11876     11879     11876     11879     11882     11883
     11876     11879     11882     11884     11876     11879     11882     11885
     11877     11876     11879     11880     11877     11876     11879     11881
     11877     11876     11879     11882     11878     11876     11879     11880
     11878     11876     11879     11881     11878     11876     11879     11882
     11879     11882     11885     11886     11879     11882     11885     11887
     11879     11882     11885     11888     11880     11879     11882     11883
     11880     11879     11882     11884     11880     11879     11882     11885
     11881     11879     11882     11883     11881     11879     11882     11884
     11881     11879     11882     11885     11882     11885     11888     11889
     11882     11885     11888     11890     11882     11885     11888     11891
     11883     11882     11885     11886     11883     11882     11885     11887
     11883     11882     11885     11888     11884     11882     11885     11886
     11884     11882     11885     11887     11884     11882     11885     11888
     11885     11888     11891     11892     11885     11888     11891     11893
     11885     11888     11891     11894     11886     11885     11888     11889
     11886     11885     11888     11890     11886     11885     11888     11891
     11887     11885     11888     11889     11887     11885     11888     11890
     11887     11885     11888     11891     11888     11891     11894     11895
     11888     11891     11894     11896     11888     11891     11894     11897
     11889     11888     11891     11892     11889     11888     11891     11893
     11889     11888     11891     11894     11890     11888     11891     11892
     11890     11888     11891     11893     11890     11888     11891     11894
     11891     11894     11897     11898     11891     11894     11897     11899
     11891     11894     11897     11900     11892     11891     11894     11895
     11892     11891     11894     11896     11892     11891     11894     11897
     11893     11891     11894     11895     11893     11891     11894     11896
     11893     11891     11894     11897     11895     11894     11897     11898
     11895     11894     11897     11899     11895     11894     11897     11900
     11896     11894     11897     11898     11896     11894     11897     11899
     11896     11894     11897     11900     11901     11904     11907     11908
     11901     11904     11907     11909     11901     11904     11907     11910
     11902     11901     11904     11905     11902     11901     11904     11906
     11902     11901     11904     11907     11903     11901     11904     11905
     11903     11901     11904     11906     11903     11901     11904     11907
     11904     11907     11910     11911     11904     11907     11910     11912
     11904     11907     11910     11913     11905     11904     11907     11908
     11905     11904     11907     11909     11905     11904     11907     11910
     11906     11904     11907     11908     11906     11904     11907     11909
     11906     11904     11907     11910     11907     11910     11913     11914
     11907     11910     11913     11915     11907     11910     11913     11916
     11908     11907     11910     11911     11908     11907     11910     11912
     11908     11907     11910     11913     11909     11907     11910     11911
     11909     11907     11910     11912     11909     11907     11910     11913
     11910     11913     11916     11917     11910     11913     11916     11918
     11910     11913     11916     11919     11911     11910     11913     11914
     11911     11910     11913     11915     11911     11910     11913     11916
     11912     11910     11913     11914     11912     11910     11913     11915
     11912     11910     11913     11916     11913     11916     11919     11920
     11913     11916     11919     11921     11913     11916     11919     11922
     11914     11913     11916     11917     11914     11913     11916     11918
     11914     11913     11916     11919     11915     11913     11916     11917
     11915     11913     11916     11918     11915     11913     11916     11919
     11916     11919     11922     11923     11916     11919     11922     11924
     11916     11919     11922     11925     11917     11916     11919     11920
     11917     11916     11919     11921     11917     11916     11919     11922
     11918     11916     11919     11920     11918     11916     11919     11921
     11918     11916     11919     11922     11919     11922     11925     11926
     11919     11922     11925     11927     11919     11922     11925     11928
     11920     11919     11922     11923     11920     11919     11922     11924
     11920     11919     11922     11925     11921     11919     11922     11923
     11921     11919     11922     11924     11921     11919     11922     11925
     11922     11925     11928     11929     11922     11925     11928     11930
     11922     11925     11928     11931     11923     11922     11925     11926
     11923     11922     11925     11927     11923     11922     11925     11928
     11924     11922     11925     11926     11924     11922     11925     11927
     11924     11922     11925     11928     11925     11928     11931     11932
     11925     11928     11931     11933     11925     11928     11931     11934
     11926     11925     11928     11929     11926     11925     11928     11930
     11926     11925     11928     11931     11927     11925     11928     11929
     11927     11925     11928     11930     11927     11925     11928     11931
     11928     11931     11934     11935     11928     11931     11934     11936
     11928     11931     11934     11937     11929     11928     11931     11932
     11929     11928     11931     11933     11929     11928     11931     11934
     11930     11928     11931     11932     11930     11928     11931     11933
     11930     11928     11931     11934     11931     11934     11937     11938
     11931     11934     11937     11939     11931     11934     11937     11940
     11932     11931     11934     11935     11932     11931     11934     11936
     11932     11931     11934     11937     11933     11931     11934     11935
     11933     11931     11934     11936     11933     11931     11934     11937
     11934     11937     11940     11941     11934     11937     11940     11942
     11934     11937     11940     11943     11935     11934     11937     11938
     11935     11934     11937     11939     11935     11934     11937     11940
     11936     11934     11937     11938     11936     11934     11937     11939
     11936     11934     11937     11940     11938     11937     11940     11941
     11938     11937     11940     11942     11938     11937     11940     11943
     11939     11937     11940     11941     11939     11937     11940     11942
     11939     11937     11940     11943     11944     11945     11960     11961
     11944     11945     11960     11962     11944     11945     11960     11966
     11945     11944     11948     11949     11945     11944     11948     11950
     11945     11944     11948     11951     11945     11944     11952     11953
     11945     11944     11952     11954     11945     11944     11952     11955
     11945     11944     11956     11957     11945     11944     11956     11958
     11945     11944     11956     11959     11945     11960     11966     11963
     11946     11945     11944     11948     11946     11945     11944     11952
     11946     11945     11944     11956     11946     11945     11960     11961
     11946     11945     11960     11962     11946     11945     11960     11966
     11947     11945     11944     11948     11947     11945     11944     11952
     11947     11945     11944     11956     11947     11945     11960     11961
     11947     11945     11960     11962     11947     11945     11960     11966
     11948     11944     11945     11960     11948     11944     11952     11953
     11948     11944     11952     11954     11948     11944     11952     11955
     11948     11944     11956     11957     11948     11944     11956     11958
     11948     11944     11956     11959     11949     11948     11944     11952
     11949     11948     11944     11956     11950     11948     11944     11952
     11950     11948     11944     11956     11951     11948     11944     11952
     11951     11948     11944     11956     11952     11944     11945     11960
     11952     11944     11956     11957     11952     11944     11956     11958
     11952     11944     11956     11959     11953     11952     11944     11956
     11954     11952     11944     11956     11955     11952     11944     11956
     11956     11944     11945     11960     11960     11966     11963     11964
     11960     11966     11963     11965     11960     11966     11963     11967
     11961     11960     11966     11963     11962     11960     11966     11963
     11963     11967     11968     11969     11963     11967     11968     11970
     11963     11967     11968     11971     11964     11963     11967     11968
     11965     11963     11967     11968     11966     11963     11967     11968
     11967     11968     11971     11972     11967     11968     11971     11973
     11967     11968     11971     11979     11968     11971     11973     11974
     11968     11971     11979     11980     11968     11971     11979     11981
     11968     11971     11979     11982     11969     11968     11971     11972
     11969     11968     11971     11973     11969     11968     11971     11979
     11970     11968     11971     11972     11970     11968     11971     11973
     11970     11968     11971     11979     11971     11973     11974     11975
     11971     11973     11974     11976     11971     11979     11982     11983
     11972     11971     11973     11974     11972     11971     11979     11980
     11972     11971     11979     11981     11972     11971     11979     11982
     11973     11971     11979     11980     11973     11971     11979     11981
     11973     11971     11979     11982     11973     11974     11976     11977
     11973     11974     11976     11978     11973     11974     11976     11988
     11974     11973     11971     11979     11974     11976     11988     11989
     11974     11976     11988     11990     11974     11976     11988     11991
     11975     11974     11976     11977     11975     11974     11976     11978
     11975     11974     11976     11988     11976     11988     11991     11992
     11976     11988     11991     11993     11976     11988     11991     11994
     11977     11976     11988     11989     11977     11976     11988     11990
     11977     11976     11988     11991     11978     11976     11988     11989
     11978     11976     11988     11990     11978     11976     11988     11991
     11979     11982     11983     11984     11979     11982     11983     11985
     11980     11979     11982     11983     11981     11979     11982     11983
     11982     11983     11985     11986     11982     11983     11985     11987
     11982     11983     11985     12035     11983     11985     12035     12036
     11983     11985     12035     12037     11983     11985     12035     12038
     11984     11983     11985     11986     11984     11983     11985     11987
     11984     11983     11985     12035     11985     12035     12038     12039
     11985     12035     12038     12040     11985     12035     12038     12041
     11986     11985     12035     12036     11986     11985     12035     12037
     11986     11985     12035     12038     11987     11985     12035     12036
     11987     11985     12035     12037     11987     11985     12035     12038
     11988     11991     11994     11995     11988     11991     11994     11996
     11988     11991     11994     11997     11989     11988     11991     11992
     11989     11988     11991     11993     11989     11988     11991     11994
     11990     11988     11991     11992     11990     11988     11991     11993
     11990     11988     11991     11994     11991     11994     11997     11998
     11991     11994     11997     11999     11991     11994     11997     12000
     11992     11991     11994     11995     11992     11991     11994     11996
     11992     11991     11994     11997     11993     11991     11994     11995
     11993     11991     11994     11996     11993     11991     11994     11997
     11994     11997     12000     12001     11994     11997     12000     12002
     11994     11997     12000     12003     11995     11994     11997     11998
     11995     11994     11997     11999     11995     11994     11997     12000
     11996     11994     11997     11998     11996     11994     11997     11999
     11996     11994     11997     12000     11997     12000     12003     12004
     11997     12000     12003     12005     11997     12000     12003     12006
     11998     11997     12000     12001     11998     11997     12000     12002
     11998     11997     12000     12003     11999     11997     12000     12001
     11999     11997     12000     12002     11999     11997     12000     12003
     12000     12003     12006     12007     12000     12003     12006     12008
     12001     12000     12003     12004     12001     12000     12003     12005
     12001     12000     12003     12006     12002     12000     12003     12004
     12002     12000     12003     12005     12002     12000     12003     12006
     12003     12006     12008     12009     12003     12006     12008     12010
     12004     12003     12006     12007     12004     12003     12006     12008
     12005     12003     12006     12007     12005     12003     12006     12008
     12006     12008     12010     12011     12006     12008     12010     12012
     12006     12008     12010     12013     12007     12006     12008     12009
     12007     12006     12008     12010     12008     12010     12013     12014
     12008     12010     12013     12015     12008     12010     12013     12016
     12009     12008     12010     12011     12009     12008     12010     12012
     12009     12008     12010     12013     12010     12013     12016     12017
     12010     12013     12016     12018     12010     12013     12016     12019
     12011     12010     12013     12014     12011     12010     12013     12015
     12011     12010     12013     12016     12012     12010     12013     12014
     12012     12010     12013     12015     12012     12010     12013     12016
     12013     12016     12019     12020     12013     12016     12019     12021
     12013     12016     12019     12022     12014     12013     12016     12017
     12014     12013     12016     12018     12014     12013     12016     12019
     12015     12013     12016     12017     12015     12013     12016     12018
     12015     12013     12016     12019     12016     12019     12022     12023
     12016     12019     12022     12024     12016     12019     12022     12025
     12017     12016     12019     12020     12017     12016     12019     12021
     12017     12016     12019     12022     12018     12016     12019     12020
     12018     12016     12019     12021     12018     12016     12019     12022
     12019     12022     12025     12026     12019     12022     12025     12027
     12019     12022     12025     12028     12020     12019     12022     12023
     12020     12019     12022     12024     12020     12019     12022     12025
     12021     12019     12022     12023     12021     12019     12022     12024
     12021     12019     12022     12025     12022     12025     12028     12029
     12022     12025     12028     12030     12022     12025     12028     12031
     12023     12022     12025     12026     12023     12022     12025     12027
     12023     12022     12025     12028     12024     12022     12025     12026
     12024     12022     12025     12027     12024     12022     12025     12028
     12025     12028     12031     12032     12025     12028     12031     12033
     12025     12028     12031     12034     12026     12025     12028     12029
     12026     12025     12028     12030     12026     12025     12028     12031
     12027     12025     12028     12029     12027     12025     12028     12030
     12027     12025     12028     12031     12029     12028     12031     12032
     12029     12028     12031     12033     12029     12028     12031     12034
     12030     12028     12031     12032     12030     12028     12031     12033
     12030     12028     12031     12034     12035     12038     12041     12042
     12035     12038     12041     12043     12035     12038     12041     12044
     12036     12035     12038     12039     12036     12035     12038     12040
     12036     12035     12038     12041     12037     12035     12038     12039
     12037     12035     12038     12040     12037     12035     12038     12041
     12038     12041     12044     12045     12038     12041     12044     12046
     12038     12041     12044     12047     12039     12038     12041     12042
     12039     12038     12041     12043     12039     12038     12041     12044
     12040     12038     12041     12042     12040     12038     12041     12043
     12040     12038     12041     12044     12041     12044     12047     12048
     12041     12044     12047     12049     12041     12044     12047     12050
     12042     12041     12044     12045     12042     12041     12044     12046
     12042     12041     12044     12047     12043     12041     12044     12045
     12043     12041     12044     12046     12043     12041     12044     12047
     12044     12047     12050     12051     12044     12047     12050     12052
     12044     12047     12050     12053     12045     12044     12047     12048
     12045     12044     12047     12049     12045     12044     12047     12050
     12046     12044     12047     12048     12046     12044     12047     12049
     12046     12044     12047     12050     12047     12050     12053     12054
     12047     12050     12053     12055     12047     12050     12053     12056
     12048     12047     12050     12051     12048     12047     12050     12052
     12048     12047     12050     12053     12049     12047     12050     12051
     12049     12047     12050     12052     12049     12047     12050     12053
     12050     12053     12056     12057     12050     12053     12056     12058
     12050     12053     12056     12059     12051     12050     12053     12054
     12051     12050     12053     12055     12051     12050     12053     12056
     12052     12050     12053     12054     12052     12050     12053     12055
     12052     12050     12053     12056     12053     12056     12059     12060
     12053     12056     12059     12061     12053     12056     12059     12062
     12054     12053     12056     12057     12054     12053     12056     12058
     12054     12053     12056     12059     12055     12053     12056     12057
     12055     12053     12056     12058     12055     12053     12056     12059
     12056     12059     12062     12063     12056     12059     12062     12064
     12056     12059     12062     12065     12057     12056     12059     12060
     12057     12056     12059     12061     12057     12056     12059     12062
     12058     12056     12059     12060     12058     12056     12059     12061
     12058     12056     12059     12062     12059     12062     12065     12066
     12059     12062     12065     12067     12059     12062     12065     12068
     12060     12059     12062     12063     12060     12059     12062     12064
     12060     12059     12062     12065     12061     12059     12062     12063
     12061     12059     12062     12064     12061     12059     12062     12065
     12062     12065     12068     12069     12062     12065     12068     12070
     12062     12065     12068     12071     12063     12062     12065     12066
     12063     12062     12065     12067     12063     12062     12065     12068
     12064     12062     12065     12066     12064     12062     12065     12067
     12064     12062     12065     12068     12065     12068     12071     12072
     12065     12068     12071     12073     12065     12068     12071     12074
     12066     12065     12068     12069     12066     12065     12068     12070
     12066     12065     12068     12071     12067     12065     12068     12069
     12067     12065     12068     12070     12067     12065     12068     12071
     12068     12071     12074     12075     12068     12071     12074     12076
     12068     12071     12074     12077     12069     12068     12071     12072
     12069     12068     12071     12073     12069     12068     12071     12074
     12070     12068     12071     12072     12070     12068     12071     12073
     12070     12068     12071     12074     12072     12071     12074     12075
     12072     12071     12074     12076     12072     12071     12074     12077
     12073     12071     12074     12075     12073     12071     12074     12076
     12073     12071     12074     12077     12078     12079     12094     12095
     12078     12079     12094     12096     12078     12079     12094     12100
     12079     12078     12082     12083     12079     12078     12082     12084
     12079     12078     12082     12085     12079     12078     12086     12087
     12079     12078     12086     12088     12079     12078     12086     12089
     12079     12078     12090     12091     12079     12078     12090     12092
     12079     12078     12090     12093     12079     12094     12100     12097
     12080     12079     12078     12082     12080     12079     12078     12086
     12080     12079     12078     12090     12080     12079     12094     12095
     12080     12079     12094     12096     12080     12079     12094     12100
     12081     12079     12078     12082     12081     12079     12078     12086
     12081     12079     12078     12090     12081     12079     12094     12095
     12081     12079     12094     12096     12081     12079     12094     12100
     12082     12078     12079     12094     12082     12078     12086     12087
     12082     12078     12086     12088     12082     12078     12086     12089
     12082     12078     12090     12091     12082     12078     12090     12092
     12082     12078     12090     12093     12083     12082     12078     12086
     12083     12082     12078     12090     12084     12082     12078     12086
     12084     12082     12078     12090     12085     12082     12078     12086
     12085     12082     12078     12090     12086     12078     12079     12094
     12086     12078     12090     12091     12086     12078     12090     12092
     12086     12078     12090     12093     12087     12086     12078     12090
     12088     12086     12078     12090     12089     12086     12078     12090
     12090     12078     12079     12094     12094     12100     12097     12098
     12094     12100     12097     12099     12094     12100     12097     12101
     12095     12094     12100     12097     12096     12094     12100     12097
     12097     12101     12102     12103     12097     12101     12102     12104
     12097     12101     12102     12105     12098     12097     12101     12102
     12099     12097     12101     12102     12100     12097     12101     12102
     12101     12102     12105     12106     12101     12102     12105     12107
     12101     12102     12105     12113     12102     12105     12107     12108
     12102     12105     12113     12114     12102     12105     12113     12115
     12102     12105     12113     12116     12103     12102     12105     12106
     12103     12102     12105     12107     12103     12102     12105     12113
     12104     12102     12105     12106     12104     12102     12105     12107
     12104     12102     12105     12113     12105     12107     12108     12109
     12105     12107     12108     12110     12105     12113     12116     12117
     12106     12105     12107     12108     12106     12105     12113     12114
     12106     12105     12113     12115     12106     12105     12113     12116
     12107     12105     12113     12114     12107     12105     12113     12115
     12107     12105     12113     12116     12107     12108     12110     12111
     12107     12108     12110     12112     12107     12108     12110     12122
     12108     12107     12105     12113     12108     12110     12122     12123
     12108     12110     12122     12124     12108     12110     12122     12125
     12109     12108     12110     12111     12109     12108     12110     12112
     12109     12108     12110     12122     12110     12122     12125     12126
     12110     12122     12125     12127     12110     12122     12125     12128
     12111     12110     12122     12123     12111     12110     12122     12124
     12111     12110     12122     12125     12112     12110     12122     12123
     12112     12110     12122     12124     12112     12110     12122     12125
     12113     12116     12117     12118     12113     12116     12117     12119
     12114     12113     12116     12117     12115     12113     12116     12117
     12116     12117     12119     12120     12116     12117     12119     12121
     12116     12117     12119     12169     12117     12119     12169     12170
     12117     12119     12169     12171     12117     12119     12169     12172
     12118     12117     12119     12120     12118     12117     12119     12121
     12118     12117     12119     12169     12119     12169     12172     12173
     12119     12169     12172     12174     12119     12169     12172     12175
     12120     12119     12169     12170     12120     12119     12169     12171
     12120     12119     12169     12172     12121     12119     12169     12170
     12121     12119     12169     12171     12121     12119     12169     12172
     12122     12125     12128     12129     12122     12125     12128     12130
     12122     12125     12128     12131     12123     12122     12125     12126
     12123     12122     12125     12127     12123     12122     12125     12128
     12124     12122     12125     12126     12124     12122     12125     12127
     12124     12122     12125     12128     12125     12128     12131     12132
     12125     12128     12131     12133     12125     12128     12131     12134
     12126     12125     12128     12129     12126     12125     12128     12130
     12126     12125     12128     12131     12127     12125     12128     12129
     12127     12125     12128     12130     12127     12125     12128     12131
     12128     12131     12134     12135     12128     12131     12134     12136
     12128     12131     12134     12137     12129     12128     12131     12132
     12129     12128     12131     12133     12129     12128     12131     12134
     12130     12128     12131     12132     12130     12128     12131     12133
     12130     12128     12131     12134     12131     12134     12137     12138
     12131     12134     12137     12139     12131     12134     12137     12140
     12132     12131     12134     12135     12132     12131     12134     12136
     12132     12131     12134     12137     12133     12131     12134     12135
     12133     12131     12134     12136     12133     12131     12134     12137
     12134     12137     12140     12141     12134     12137     12140     12142
     12135     12134     12137     12138     12135     12134     12137     12139
     12135     12134     12137     12140     12136     12134     12137     12138
     12136     12134     12137     12139     12136     12134     12137     12140
     12137     12140     12142     12143     12137     12140     12142     12144
     12138     12137     12140     12141     12138     12137     12140     12142
     12139     12137     12140     12141     12139     12137     12140     12142
     12140     12142     12144     12145     12140     12142     12144     12146
     12140     12142     12144     12147     12141     12140     12142     12143
     12141     12140     12142     12144     12142     12144     12147     12148
     12142     12144     12147     12149     12142     12144     12147     12150
     12143     12142     12144     12145     12143     12142     12144     12146
     12143     12142     12144     12147     12144     12147     12150     12151
     12144     12147     12150     12152     12144     12147     12150     12153
     12145     12144     12147     12148     12145     12144     12147     12149
     12145     12144     12147     12150     12146     12144     12147     12148
     12146     12144     12147     12149     12146     12144     12147     12150
     12147     12150     12153     12154     12147     12150     12153     12155
     12147     12150     12153     12156     12148     12147     12150     12151
     12148     12147     12150     12152     12148     12147     12150     12153
     12149     12147     12150     12151     12149     12147     12150     12152
     12149     12147     12150     12153     12150     12153     12156     12157
     12150     12153     12156     12158     12150     12153     12156     12159
     12151     12150     12153     12154     12151     12150     12153     12155
     12151     12150     12153     12156     12152     12150     12153     12154
     12152     12150     12153     12155     12152     12150     12153     12156
     12153     12156     12159     12160     12153     12156     12159     12161
     12153     12156     12159     12162     12154     12153     12156     12157
     12154     12153     12156     12158     12154     12153     12156     12159
     12155     12153     12156     12157     12155     12153     12156     12158
     12155     12153     12156     12159     12156     12159     12162     12163
     12156     12159     12162     12164     12156     12159     12162     12165
     12157     12156     12159     12160     12157     12156     12159     12161
     12157     12156     12159     12162     12158     12156     12159     12160
     12158     12156     12159     12161     12158     12156     12159     12162
     12159     12162     12165     12166     12159     12162     12165     12167
     12159     12162     12165     12168     12160     12159     12162     12163
     12160     12159     12162     12164     12160     12159     12162     12165
     12161     12159     12162     12163     12161     12159     12162     12164
     12161     12159     12162     12165     12163     12162     12165     12166
     12163     12162     12165     12167     12163     12162     12165     12168
     12164     12162     12165     12166     12164     12162     12165     12167
     12164     12162     12165     12168     12169     12172     12175     12176
     12169     12172     12175     12177     12169     12172     12175     12178
     12170     12169     12172     12173     12170     12169     12172     12174
     12170     12169     12172     12175     12171     12169     12172     12173
     12171     12169     12172     12174     12171     12169     12172     12175
     12172     12175     12178     12179     12172     12175     12178     12180
     12172     12175     12178     12181     12173     12172     12175     12176
     12173     12172     12175     12177     12173     12172     12175     12178
     12174     12172     12175     12176     12174     12172     12175     12177
     12174     12172     12175     12178     12175     12178     12181     12182
     12175     12178     12181     12183     12175     12178     12181     12184
     12176     12175     12178     12179     12176     12175     12178     12180
     12176     12175     12178     12181     12177     12175     12178     12179
     12177     12175     12178     12180     12177     12175     12178     12181
     12178     12181     12184     12185     12178     12181     12184     12186
     12178     12181     12184     12187     12179     12178     12181     12182
     12179     12178     12181     12183     12179     12178     12181     12184
     12180     12178     12181     12182     12180     12178     12181     12183
     12180     12178     12181     12184     12181     12184     12187     12188
     12181     12184     12187     12189     12181     12184     12187     12190
     12182     12181     12184     12185     12182     12181     12184     12186
     12182     12181     12184     12187     12183     12181     12184     12185
     12183     12181     12184     12186     12183     12181     12184     12187
     12184     12187     12190     12191     12184     12187     12190     12192
     12184     12187     12190     12193     12185     12184     12187     12188
     12185     12184     12187     12189     12185     12184     12187     12190
     12186     12184     12187     12188     12186     12184     12187     12189
     12186     12184     12187     12190     12187     12190     12193     12194
     12187     12190     12193     12195     12187     12190     12193     12196
     12188     12187     12190     12191     12188     12187     12190     12192
     12188     12187     12190     12193     12189     12187     12190     12191
     12189     12187     12190     12192     12189     12187     12190     12193
     12190     12193     12196     12197     12190     12193     12196     12198
     12190     12193     12196     12199     12191     12190     12193     12194
     12191     12190     12193     12195     12191     12190     12193     12196
     12192     12190     12193     12194     12192     12190     12193     12195
     12192     12190     12193     12196     12193     12196     12199     12200
     12193     12196     12199     12201     12193     12196     12199     12202
     12194     12193     12196     12197     12194     12193     12196     12198
     12194     12193     12196     12199     12195     12193     12196     12197
     12195     12193     12196     12198     12195     12193     12196     12199
     12196     12199     12202     12203     12196     12199     12202     12204
     12196     12199     12202     12205     12197     12196     12199     12200
     12197     12196     12199     12201     12197     12196     12199     12202
     12198     12196     12199     12200     12198     12196     12199     12201
     12198     12196     12199     12202     12199     12202     12205     12206
     12199     12202     12205     12207     12199     12202     12205     12208
     12200     12199     12202     12203     12200     12199     12202     12204
     12200     12199     12202     12205     12201     12199     12202     12203
     12201     12199     12202     12204     12201     12199     12202     12205
     12202     12205     12208     12209     12202     12205     12208     12210
     12202     12205     12208     12211     12203     12202     12205     12206
     12203     12202     12205     12207     12203     12202     12205     12208
     12204     12202     12205     12206     12204     12202     12205     12207
     12204     12202     12205     12208     12206     12205     12208     12209
     12206     12205     12208     12210     12206     12205     12208     12211
     12207     12205     12208     12209     12207     12205     12208     12210
     12207     12205     12208     12211     12212     12216     12218     12219
     12212     12216     12218     12220     12212     12216     12221     12222
     12212     12216     12221     12223     12212     12216     12221     12227
     12213     12212     12216     12217     12213     12212     12216     12218
     12213     12212     12216     12221     12214     12212     12216     12217
     12214     12212     12216     12218     12214     12212     12216     12221
     12215     12212     12216     12217     12215     12212     12216     12218
     12215     12212     12216     12221     12216     12221     12227     12224
     12217     12216     12218     12219     12217     12216     12218     12220
     12217     12216     12221     12222     12217     12216     12221     12223
     12217     12216     12221     12227     12218     12216     12221     12222
     12218     12216     12221     12223     12218     12216     12221     12227
     12219     12218     12216     12221     12220     12218     12216     12221
     12221     12227     12224     12225     12221     12227     12224     12226
     12221     12227     12224     12228     12222     12221     12227     12224
     12223     12221     12227     12224     12224     12228     12229     12230
     12224     12228     12229     12231     12224     12228     12229     12232
     12225     12224     12228     12229     12226     12224     12228     12229
     12227     12224     12228     12229     12228     12229     12232     12233
     12228     12229     12232     12234     12228     12229     12232     12240
     12229     12232     12234     12235     12229     12232     12240     12241
     12229     12232     12240     12242     12229     12232     12240     12243
     12230     12229     12232     12233     12230     12229     12232     12234
     12230     12229     12232     12240     12231     12229     12232     12233
     12231     12229     12232     12234     12231     12229     12232     12240
     12232     12234     12235     12236     12232     12234     12235     12237
     12232     12240     12243     12244     12233     12232     12234     12235
     12233     12232     12240     12241     12233     12232     12240     12242
     12233     12232     12240     12243     12234     12232     12240     12241
     12234     12232     12240     12242     12234     12232     12240     12243
     12234     12235     12237     12238     12234     12235     12237     12239
     12234     12235     12237     12249     12235     12234     12232     12240
     12235     12237     12249     12250     12235     12237     12249     12251
     12235     12237     12249     12252     12236     12235     12237     12238
     12236     12235     12237     12239     12236     12235     12237     12249
     12237     12249     12252     12253     12237     12249     12252     12254
     12237     12249     12252     12255     12238     12237     12249     12250
     12238     12237     12249     12251     12238     12237     12249     12252
     12239     12237     12249     12250     12239     12237     12249     12251
     12239     12237     12249     12252     12240     12243     12244     12245
     12240     12243     12244     12246     12241     12240     12243     12244
     12242     12240     12243     12244     12243     12244     12246     12247
     12243     12244     12246     12248     12243     12244     12246     12296
     12244     12246     12296     12297     12244     12246     12296     12298
     12244     12246     12296     12299     12245     12244     12246     12247
     12245     12244     12246     12248     12245     12244     12246     12296
     12246     12296     12299     12300     12246     12296     12299     12301
     12246     12296     12299     12302     12247     12246     12296     12297
     12247     12246     12296     12298     12247     12246     12296     12299
     12248     12246     12296     12297     12248     12246     12296     12298
     12248     12246     12296     12299     12249     12252     12255     12256
     12249     12252     12255     12257     12249     12252     12255     12258
     12250     12249     12252     12253     12250     12249     12252     12254
     12250     12249     12252     12255     12251     12249     12252     12253
     12251     12249     12252     12254     12251     12249     12252     12255
     12252     12255     12258     12259     12252     12255     12258     12260
     12252     12255     12258     12261     12253     12252     12255     12256
     12253     12252     12255     12257     12253     12252     12255     12258
     12254     12252     12255     12256     12254     12252     12255     12257
     12254     12252     12255     12258     12255     12258     12261     12262
     12255     12258     12261     12263     12255     12258     12261     12264
     12256     12255     12258     12259     12256     12255     12258     12260
     12256     12255     12258     12261     12257     12255     12258     12259
     12257     12255     12258     12260     12257     12255     12258     12261
     12258     12261     12264     12265     12258     12261     12264     12266
     12258     12261     12264     12267     12259     12258     12261     12262
     12259     12258     12261     12263     12259     12258     12261     12264
     12260     12258     12261     12262     12260     12258     12261     12263
     12260     12258     12261     12264     12261     12264     12267     12268
     12261     12264     12267     12269     12262     12261     12264     12265
     12262     12261     12264     12266     12262     12261     12264     12267
     12263     12261     12264     12265     12263     12261     12264     12266
     12263     12261     12264     12267     12264     12267     12269     12270
     12264     12267     12269     12271     12265     12264     12267     12268
     12265     12264     12267     12269     12266     12264     12267     12268
     12266     12264     12267     12269     12267     12269     12271     12272
     12267     12269     12271     12273     12267     12269     12271     12274
     12268     12267     12269     12270     12268     12267     12269     12271
     12269     12271     12274     12275     12269     12271     12274     12276
     12269     12271     12274     12277     12270     12269     12271     12272
     12270     12269     12271     12273     12270     12269     12271     12274
     12271     12274     12277     12278     12271     12274     12277     12279
     12271     12274     12277     12280     12272     12271     12274     12275
     12272     12271     12274     12276     12272     12271     12274     12277
     12273     12271     12274     12275     12273     12271     12274     12276
     12273     12271     12274     12277     12274     12277     12280     12281
     12274     12277     12280     12282     12274     12277     12280     12283
     12275     12274     12277     12278     12275     12274     12277     12279
     12275     12274     12277     12280     12276     12274     12277     12278
     12276     12274     12277     12279     12276     12274     12277     12280
     12277     12280     12283     12284     12277     12280     12283     12285
     12277     12280     12283     12286     12278     12277     12280     12281
     12278     12277     12280     12282     12278     12277     12280     12283
     12279     12277     12280     12281     12279     12277     12280     12282
     12279     12277     12280     12283     12280     12283     12286     12287
     12280     12283     12286     12288     12280     12283     12286     12289
     12281     12280     12283     12284     12281     12280     12283     12285
     12281     12280     12283     12286     12282     12280     12283     12284
     12282     12280     12283     12285     12282     12280     12283     12286
     12283     12286     12289     12290     12283     12286     12289     12291
     12283     12286     12289     12292     12284     12283     12286     12287
     12284     12283     12286     12288     12284     12283     12286     12289
     12285     12283     12286     12287     12285     12283     12286     12288
     12285     12283     12286     12289     12286     12289     12292     12293
     12286     12289     12292     12294     12286     12289     12292     12295
     12287     12286     12289     12290     12287     12286     12289     12291
     12287     12286     12289     12292     12288     12286     12289     12290
     12288     12286     12289     12291     12288     12286     12289     12292
     12290     12289     12292     12293     12290     12289     12292     12294
     12290     12289     12292     12295     12291     12289     12292     12293
     12291     12289     12292     12294     12291     12289     12292     12295
     12296     12299     12302     12303     12296     12299     12302     12304
     12296     12299     12302     12305     12297     12296     12299     12300
     12297     12296     12299     12301     12297     12296     12299     12302
     12298     12296     12299     12300     12298     12296     12299     12301
     12298     12296     12299     12302     12299     12302     12305     12306
     12299     12302     12305     12307     12299     12302     12305     12308
     12300     12299     12302     12303     12300     12299     12302     12304
     12300     12299     12302     12305     12301     12299     12302     12303
     12301     12299     12302     12304     12301     12299     12302     12305
     12302     12305     12308     12309     12302     12305     12308     12310
     12302     12305     12308     12311     12303     12302     12305     12306
     12303     12302     12305     12307     12303     12302     12305     12308
     12304     12302     12305     12306     12304     12302     12305     12307
     12304     12302     12305     12308     12305     12308     12311     12312
     12305     12308     12311     12313     12305     12308     12311     12314
     12306     12305     12308     12309     12306     12305     12308     12310
     12306     12305     12308     12311     12307     12305     12308     12309
     12307     12305     12308     12310     12307     12305     12308     12311
     12308     12311     12314     12315     12308     12311     12314     12316
     12308     12311     12314     12317     12309     12308     12311     12312
     12309     12308     12311     12313     12309     12308     12311     12314
     12310     12308     12311     12312     12310     12308     12311     12313
     12310     12308     12311     12314     12311     12314     12317     12318
     12311     12314     12317     12319     12311     12314     12317     12320
     12312     12311     12314     12315     12312     12311     12314     12316
     12312     12311     12314     12317     12313     12311     12314     12315
     12313     12311     12314     12316     12313     12311     12314     12317
     12314     12317     12320     12321     12314     12317     12320     12322
     12314     12317     12320     12323     12315     12314     12317     12318
     12315     12314     12317     12319     12315     12314     12317     12320
     12316     12314     12317     12318     12316     12314     12317     12319
     12316     12314     12317     12320     12317     12320     12323     12324
     12317     12320     12323     12325     12317     12320     12323     12326
     12318     12317     12320     12321     12318     12317     12320     12322
     12318     12317     12320     12323     12319     12317     12320     12321
     12319     12317     12320     12322     12319     12317     12320     12323
     12320     12323     12326     12327     12320     12323     12326     12328
     12320     12323     12326     12329     12321     12320     12323     12324
     12321     12320     12323     12325     12321     12320     12323     12326
     12322     12320     12323     12324     12322     12320     12323     12325
     12322     12320     12323     12326     12323     12326     12329     12330
     12323     12326     12329     12331     12323     12326     12329     12332
     12324     12323     12326     12327     12324     12323     12326     12328
     12324     12323     12326     12329     12325     12323     12326     12327
     12325     12323     12326     12328     12325     12323     12326     12329
     12326     12329     12332     12333     12326     12329     12332     12334
     12326     12329     12332     12335     12327     12326     12329     12330
     12327     12326     12329     12331     12327     12326     12329     12332
     12328     12326     12329     12330     12328     12326     12329     12331
     12328     12326     12329     12332     12329     12332     12335     12336
     12329     12332     12335     12337     12329     12332     12335     12338
     12330     12329     12332     12333     12330     12329     12332     12334
     12330     12329     12332     12335     12331     12329     12332     12333
     12331     12329     12332     12334     12331     12329     12332     12335
     12333     12332     12335     12336     12333     12332     12335     12337
     12333     12332     12335     12338     12334     12332     12335     12336
     12334     12332     12335     12337     12334     12332     12335     12338
     12339     12340     12355     12356     12339     12340     12355     12357
     12339     12340     12355     12361     12340     12339     12343     12344
     12340     12339     12343     12345     12340     12339     12343     12346
     12340     12339     12347     12348     12340     12339     12347     12349
     12340     12339     12347     12350     12340     12339     12351     12352
     12340     12339     12351     12353     12340     12339     12351     12354
     12340     12355     12361     12358     12341     12340     12339     12343
     12341     12340     12339     12347     12341     12340     12339     12351
     12341     12340     12355     12356     12341     12340     12355     12357
     12341     12340     12355     12361     12342     12340     12339     12343
     12342     12340     12339     12347     12342     12340     12339     12351
     12342     12340     12355     12356     12342     12340     12355     12357
     12342     12340     12355     12361     12343     12339     12340     12355
     12343     12339     12347     12348     12343     12339     12347     12349
     12343     12339     12347     12350     12343     12339     12351     12352
     12343     12339     12351     12353     12343     12339     12351     12354
     12344     12343     12339     12347     12344     12343     12339     12351
     12345     12343     12339     12347     12345     12343     12339     12351
     12346     12343     12339     12347     12346     12343     12339     12351
     12347     12339     12340     12355     12347     12339     12351     12352
     12347     12339     12351     12353     12347     12339     12351     12354
     12348     12347     12339     12351     12349     12347     12339     12351
     12350     12347     12339     12351     12351     12339     12340     12355
     12355     12361     12358     12359     12355     12361     12358     12360
     12355     12361     12358     12362     12356     12355     12361     12358
     12357     12355     12361     12358     12358     12362     12363     12364
     12358     12362     12363     12365     12358     12362     12363     12366
     12359     12358     12362     12363     12360     12358     12362     12363
     12361     12358     12362     12363     12362     12363     12366     12367
     12362     12363     12366     12368     12362     12363     12366     12374
     12363     12366     12368     12369     12363     12366     12374     12375
     12363     12366     12374     12376     12363     12366     12374     12377
     12364     12363     12366     12367     12364     12363     12366     12368
     12364     12363     12366     12374     12365     12363     12366     12367
     12365     12363     12366     12368     12365     12363     12366     12374
     12366     12368     12369     12370     12366     12368     12369     12371
     12366     12374     12377     12378     12367     12366     12368     12369
     12367     12366     12374     12375     12367     12366     12374     12376
     12367     12366     12374     12377     12368     12366     12374     12375
     12368     12366     12374     12376     12368     12366     12374     12377
     12368     12369     12371     12372     12368     12369     12371     12373
     12368     12369     12371     12383     12369     12368     12366     12374
     12369     12371     12383     12384     12369     12371     12383     12385
     12369     12371     12383     12386     12370     12369     12371     12372
     12370     12369     12371     12373     12370     12369     12371     12383
     12371     12383     12386     12387     12371     12383     12386     12388
     12371     12383     12386     12389     12372     12371     12383     12384
     12372     12371     12383     12385     12372     12371     12383     12386
     12373     12371     12383     12384     12373     12371     12383     12385
     12373     12371     12383     12386     12374     12377     12378     12379
     12374     12377     12378     12380     12375     12374     12377     12378
     12376     12374     12377     12378     12377     12378     12380     12381
     12377     12378     12380     12382     12377     12378     12380     12430
     12378     12380     12430     12431     12378     12380     12430     12432
     12378     12380     12430     12433     12379     12378     12380     12381
     12379     12378     12380     12382     12379     12378     12380     12430
     12380     12430     12433     12434     12380     12430     12433     12435
     12380     12430     12433     12436     12381     12380     12430     12431
     12381     12380     12430     12432     12381     12380     12430     12433
     12382     12380     12430     12431     12382     12380     12430     12432
     12382     12380     12430     12433     12383     12386     12389     12390
     12383     12386     12389     12391     12383     12386     12389     12392
     12384     12383     12386     12387     12384     12383     12386     12388
     12384     12383     12386     12389     12385     12383     12386     12387
     12385     12383     12386     12388     12385     12383     12386     12389
     12386     12389     12392     12393     12386     12389     12392     12394
     12386     12389     12392     12395     12387     12386     12389     12390
     12387     12386     12389     12391     12387     12386     12389     12392
     12388     12386     12389     12390     12388     12386     12389     12391
     12388     12386     12389     12392     12389     12392     12395     12396
     12389     12392     12395     12397     12389     12392     12395     12398
     12390     12389     12392     12393     12390     12389     12392     12394
     12390     12389     12392     12395     12391     12389     12392     12393
     12391     12389     12392     12394     12391     12389     12392     12395
     12392     12395     12398     12399     12392     12395     12398     12400
     12392     12395     12398     12401     12393     12392     12395     12396
     12393     12392     12395     12397     12393     12392     12395     12398
     12394     12392     12395     12396     12394     12392     12395     12397
     12394     12392     12395     12398     12395     12398     12401     12402
     12395     12398     12401     12403     12396     12395     12398     12399
     12396     12395     12398     12400     12396     12395     12398     12401
     12397     12395     12398     12399     12397     12395     12398     12400
     12397     12395     12398     12401     12398     12401     12403     12404
     12398     12401     12403     12405     12399     12398     12401     12402
     12399     12398     12401     12403     12400     12398     12401     12402
     12400     12398     12401     12403     12401     12403     12405     12406
     12401     12403     12405     12407     12401     12403     12405     12408
     12402     12401     12403     12404     12402     12401     12403     12405
     12403     12405     12408     12409     12403     12405     12408     12410
     12403     12405     12408     12411     12404     12403     12405     12406
     12404     12403     12405     12407     12404     12403     12405     12408
     12405     12408     12411     12412     12405     12408     12411     12413
     12405     12408     12411     12414     12406     12405     12408     12409
     12406     12405     12408     12410     12406     12405     12408     12411
     12407     12405     12408     12409     12407     12405     12408     12410
     12407     12405     12408     12411     12408     12411     12414     12415
     12408     12411     12414     12416     12408     12411     12414     12417
     12409     12408     12411     12412     12409     12408     12411     12413
     12409     12408     12411     12414     12410     12408     12411     12412
     12410     12408     12411     12413     12410     12408     12411     12414
     12411     12414     12417     12418     12411     12414     12417     12419
     12411     12414     12417     12420     12412     12411     12414     12415
     12412     12411     12414     12416     12412     12411     12414     12417
     12413     12411     12414     12415     12413     12411     12414     12416
     12413     12411     12414     12417     12414     12417     12420     12421
     12414     12417     12420     12422     12414     12417     12420     12423
     12415     12414     12417     12418     12415     12414     12417     12419
     12415     12414     12417     12420     12416     12414     12417     12418
     12416     12414     12417     12419     12416     12414     12417     12420
     12417     12420     12423     12424     12417     12420     12423     12425
     12417     12420     12423     12426     12418     12417     12420     12421
     12418     12417     12420     12422     12418     12417     12420     12423
     12419     12417     12420     12421     12419     12417     12420     12422
     12419     12417     12420     12423     12420     12423     12426     12427
     12420     12423     12426     12428     12420     12423     12426     12429
     12421     12420     12423     12424     12421     12420     12423     12425
     12421     12420     12423     12426     12422     12420     12423     12424
     12422     12420     12423     12425     12422     12420     12423     12426
     12424     12423     12426     12427     12424     12423     12426     12428
     12424     12423     12426     12429     12425     12423     12426     12427
     12425     12423     12426     12428     12425     12423     12426     12429
     12430     12433     12436     12437     12430     12433     12436     12438
     12430     12433     12436     12439     12431     12430     12433     12434
     12431     12430     12433     12435     12431     12430     12433     12436
     12432     12430     12433     12434     12432     12430     12433     12435
     12432     12430     12433     12436     12433     12436     12439     12440
     12433     12436     12439     12441     12433     12436     12439     12442
     12434     12433     12436     12437     12434     12433     12436     12438
     12434     12433     12436     12439     12435     12433     12436     12437
     12435     12433     12436     12438     12435     12433     12436     12439
     12436     12439     12442     12443     12436     12439     12442     12444
     12436     12439     12442     12445     12437     12436     12439     12440
     12437     12436     12439     12441     12437     12436     12439     12442
     12438     12436     12439     12440     12438     12436     12439     12441
     12438     12436     12439     12442     12439     12442     12445     12446
     12439     12442     12445     12447     12439     12442     12445     12448
     12440     12439     12442     12443     12440     12439     12442     12444
     12440     12439     12442     12445     12441     12439     12442     12443
     12441     12439     12442     12444     12441     12439     12442     12445
     12442     12445     12448     12449     12442     12445     12448     12450
     12442     12445     12448     12451     12443     12442     12445     12446
     12443     12442     12445     12447     12443     12442     12445     12448
     12444     12442     12445     12446     12444     12442     12445     12447
     12444     12442     12445     12448     12445     12448     12451     12452
     12445     12448     12451     12453     12445     12448     12451     12454
     12446     12445     12448     12449     12446     12445     12448     12450
     12446     12445     12448     12451     12447     12445     12448     12449
     12447     12445     12448     12450     12447     12445     12448     12451
     12448     12451     12454     12455     12448     12451     12454     12456
     12448     12451     12454     12457     12449     12448     12451     12452
     12449     12448     12451     12453     12449     12448     12451     12454
     12450     12448     12451     12452     12450     12448     12451     12453
     12450     12448     12451     12454     12451     12454     12457     12458
     12451     12454     12457     12459     12451     12454     12457     12460
     12452     12451     12454     12455     12452     12451     12454     12456
     12452     12451     12454     12457     12453     12451     12454     12455
     12453     12451     12454     12456     12453     12451     12454     12457
     12454     12457     12460     12461     12454     12457     12460     12462
     12454     12457     12460     12463     12455     12454     12457     12458
     12455     12454     12457     12459     12455     12454     12457     12460
     12456     12454     12457     12458     12456     12454     12457     12459
     12456     12454     12457     12460     12457     12460     12463     12464
     12457     12460     12463     12465     12457     12460     12463     12466
     12458     12457     12460     12461     12458     12457     12460     12462
     12458     12457     12460     12463     12459     12457     12460     12461
     12459     12457     12460     12462     12459     12457     12460     12463
     12460     12463     12466     12467     12460     12463     12466     12468
     12460     12463     12466     12469     12461     12460     12463     12464
     12461     12460     12463     12465     12461     12460     12463     12466
     12462     12460     12463     12464     12462     12460     12463     12465
     12462     12460     12463     12466     12463     12466     12469     12470
     12463     12466     12469     12471     12463     12466     12469     12472
     12464     12463     12466     12467     12464     12463     12466     12468
     12464     12463     12466     12469     12465     12463     12466     12467
     12465     12463     12466     12468     12465     12463     12466     12469
     12467     12466     12469     12470     12467     12466     12469     12471
     12467     12466     12469     12472     12468     12466     12469     12470
     12468     12466     12469     12471     12468     12466     12469     12472
     12473     12474     12489     12490     12473     12474     12489     12491
     12473     12474     12489     12495     12474     12473     12477     12478
     12474     12473     12477     12479     12474     12473     12477     12480
     12474     12473     12481     12482     12474     12473     12481     12483
     12474     12473     12481     12484     12474     12473     12485     12486
     12474     12473     12485     12487     12474     12473     12485     12488
     12474     12489     12495     12492     12475     12474     12473     12477
     12475     12474     12473     12481     12475     12474     12473     12485
     12475     12474     12489     12490     12475     12474     12489     12491
     12475     12474     12489     12495     12476     12474     12473     12477
     12476     12474     12473     12481     12476     12474     12473     12485
     12476     12474     12489     12490     12476     12474     12489     12491
     12476     12474     12489     12495     12477     12473     12474     12489
     12477     12473     12481     12482     12477     12473     12481     12483
     12477     12473     12481     12484     12477     12473     12485     12486
     12477     12473     12485     12487     12477     12473     12485     12488
     12478     12477     12473     12481     12478     12477     12473     12485
     12479     12477     12473     12481     12479     12477     12473     12485
     12480     12477     12473     12481     12480     12477     12473     12485
     12481     12473     12474     12489     12481     12473     12485     12486
     12481     12473     12485     12487     12481     12473     12485     12488
     12482     12481     12473     12485     12483     12481     12473     12485
     12484     12481     12473     12485     12485     12473     12474     12489
     12489     12495     12492     12493     12489     12495     12492     12494
     12489     12495     12492     12496     12490     12489     12495     12492
     12491     12489     12495     12492     12492     12496     12497     12498
     12492     12496     12497     12499     12492     12496     12497     12500
     12493     12492     12496     12497     12494     12492     12496     12497
     12495     12492     12496     12497     12496     12497     12500     12501
     12496     12497     12500     12502     12496     12497     12500     12508
     12497     12500     12502     12503     12497     12500     12508     12509
     12497     12500     12508     12510     12497     12500     12508     12511
     12498     12497     12500     12501     12498     12497     12500     12502
     12498     12497     12500     12508     12499     12497     12500     12501
     12499     12497     12500     12502     12499     12497     12500     12508
     12500     12502     12503     12504     12500     12502     12503     12505
     12500     12508     12511     12512     12501     12500     12502     12503
     12501     12500     12508     12509     12501     12500     12508     12510
     12501     12500     12508     12511     12502     12500     12508     12509
     12502     12500     12508     12510     12502     12500     12508     12511
     12502     12503     12505     12506     12502     12503     12505     12507
     12502     12503     12505     12517     12503     12502     12500     12508
     12503     12505     12517     12518     12503     12505     12517     12519
     12503     12505     12517     12520     12504     12503     12505     12506
     12504     12503     12505     12507     12504     12503     12505     12517
     12505     12517     12520     12521     12505     12517     12520     12522
     12505     12517     12520     12523     12506     12505     12517     12518
     12506     12505     12517     12519     12506     12505     12517     12520
     12507     12505     12517     12518     12507     12505     12517     12519
     12507     12505     12517     12520     12508     12511     12512     12513
     12508     12511     12512     12514     12509     12508     12511     12512
     12510     12508     12511     12512     12511     12512     12514     12515
     12511     12512     12514     12516     12511     12512     12514     12564
     12512     12514     12564     12565     12512     12514     12564     12566
     12512     12514     12564     12567     12513     12512     12514     12515
     12513     12512     12514     12516     12513     12512     12514     12564
     12514     12564     12567     12568     12514     12564     12567     12569
     12514     12564     12567     12570     12515     12514     12564     12565
     12515     12514     12564     12566     12515     12514     12564     12567
     12516     12514     12564     12565     12516     12514     12564     12566
     12516     12514     12564     12567     12517     12520     12523     12524
     12517     12520     12523     12525     12517     12520     12523     12526
     12518     12517     12520     12521     12518     12517     12520     12522
     12518     12517     12520     12523     12519     12517     12520     12521
     12519     12517     12520     12522     12519     12517     12520     12523
     12520     12523     12526     12527     12520     12523     12526     12528
     12520     12523     12526     12529     12521     12520     12523     12524
     12521     12520     12523     12525     12521     12520     12523     12526
     12522     12520     12523     12524     12522     12520     12523     12525
     12522     12520     12523     12526     12523     12526     12529     12530
     12523     12526     12529     12531     12523     12526     12529     12532
     12524     12523     12526     12527     12524     12523     12526     12528
     12524     12523     12526     12529     12525     12523     12526     12527
     12525     12523     12526     12528     12525     12523     12526     12529
     12526     12529     12532     12533     12526     12529     12532     12534
     12526     12529     12532     12535     12527     12526     12529     12530
     12527     12526     12529     12531     12527     12526     12529     12532
     12528     12526     12529     12530     12528     12526     12529     12531
     12528     12526     12529     12532     12529     12532     12535     12536
     12529     12532     12535     12537     12530     12529     12532     12533
     12530     12529     12532     12534     12530     12529     12532     12535
     12531     12529     12532     12533     12531     12529     12532     12534
     12531     12529     12532     12535     12532     12535     12537     12538
     12532     12535     12537     12539     12533     12532     12535     12536
     12533     12532     12535     12537     12534     12532     12535     12536
     12534     12532     12535     12537     12535     12537     12539     12540
     12535     12537     12539     12541     12535     12537     12539     12542
     12536     12535     12537     12538     12536     12535     12537     12539
     12537     12539     12542     12543     12537     12539     12542     12544
     12537     12539     12542     12545     12538     12537     12539     12540
     12538     12537     12539     12541     12538     12537     12539     12542
     12539     12542     12545     12546     12539     12542     12545     12547
     12539     12542     12545     12548     12540     12539     12542     12543
     12540     12539     12542     12544     12540     12539     12542     12545
     12541     12539     12542     12543     12541     12539     12542     12544
     12541     12539     12542     12545     12542     12545     12548     12549
     12542     12545     12548     12550     12542     12545     12548     12551
     12543     12542     12545     12546     12543     12542     12545     12547
     12543     12542     12545     12548     12544     12542     12545     12546
     12544     12542     12545     12547     12544     12542     12545     12548
     12545     12548     12551     12552     12545     12548     12551     12553
     12545     12548     12551     12554     12546     12545     12548     12549
     12546     12545     12548     12550     12546     12545     12548     12551
     12547     12545     12548     12549     12547     12545     12548     12550
     12547     12545     12548     12551     12548     12551     12554     12555
     12548     12551     12554     12556     12548     12551     12554     12557
     12549     12548     12551     12552     12549     12548     12551     12553
     12549     12548     12551     12554     12550     12548     12551     12552
     12550     12548     12551     12553     12550     12548     12551     12554
     12551     12554     12557     12558     12551     12554     12557     12559
     12551     12554     12557     12560     12552     12551     12554     12555
     12552     12551     12554     12556     12552     12551     12554     12557
     12553     12551     12554     12555     12553     12551     12554     12556
     12553     12551     12554     12557     12554     12557     12560     12561
     12554     12557     12560     12562     12554     12557     12560     12563
     12555     12554     12557     12558     12555     12554     12557     12559
     12555     12554     12557     12560     12556     12554     12557     12558
     12556     12554     12557     12559     12556     12554     12557     12560
     12558     12557     12560     12561     12558     12557     12560     12562
     12558     12557     12560     12563     12559     12557     12560     12561
     12559     12557     12560     12562     12559     12557     12560     12563
     12564     12567     12570     12571     12564     12567     12570     12572
     12564     12567     12570     12573     12565     12564     12567     12568
     12565     12564     12567     12569     12565     12564     12567     12570
     12566     12564     12567     12568     12566     12564     12567     12569
     12566     12564     12567     12570     12567     12570     12573     12574
     12567     12570     12573     12575     12567     12570     12573     12576
     12568     12567     12570     12571     12568     12567     12570     12572
     12568     12567     12570     12573     12569     12567     12570     12571
     12569     12567     12570     12572     12569     12567     12570     12573
     12570     12573     12576     12577     12570     12573     12576     12578
     12570     12573     12576     12579     12571     12570     12573     12574
     12571     12570     12573     12575     12571     12570     12573     12576
     12572     12570     12573     12574     12572     12570     12573     12575
     12572     12570     12573     12576     12573     12576     12579     12580
     12573     12576     12579     12581     12573     12576     12579     12582
     12574     12573     12576     12577     12574     12573     12576     12578
     12574     12573     12576     12579     12575     12573     12576     12577
     12575     12573     12576     12578     12575     12573     12576     12579
     12576     12579     12582     12583     12576     12579     12582     12584
     12576     12579     12582     12585     12577     12576     12579     12580
     12577     12576     12579     12581     12577     12576     12579     12582
     12578     12576     12579     12580     12578     12576     12579     12581
     12578     12576     12579     12582     12579     12582     12585     12586
     12579     12582     12585     12587     12579     12582     12585     12588
     12580     12579     12582     12583     12580     12579     12582     12584
     12580     12579     12582     12585     12581     12579     12582     12583
     12581     12579     12582     12584     12581     12579     12582     12585
     12582     12585     12588     12589     12582     12585     12588     12590
     12582     12585     12588     12591     12583     12582     12585     12586
     12583     12582     12585     12587     12583     12582     12585     12588
     12584     12582     12585     12586     12584     12582     12585     12587
     12584     12582     12585     12588     12585     12588     12591     12592
     12585     12588     12591     12593     12585     12588     12591     12594
     12586     12585     12588     12589     12586     12585     12588     12590
     12586     12585     12588     12591     12587     12585     12588     12589
     12587     12585     12588     12590     12587     12585     12588     12591
     12588     12591     12594     12595     12588     12591     12594     12596
     12588     12591     12594     12597     12589     12588     12591     12592
     12589     12588     12591     12593     12589     12588     12591     12594
     12590     12588     12591     12592     12590     12588     12591     12593
     12590     12588     12591     12594     12591     12594     12597     12598
     12591     12594     12597     12599     12591     12594     12597     12600
     12592     12591     12594     12595     12592     12591     12594     12596
     12592     12591     12594     12597     12593     12591     12594     12595
     12593     12591     12594     12596     12593     12591     12594     12597
     12594     12597     12600     12601     12594     12597     12600     12602
     12594     12597     12600     12603     12595     12594     12597     12598
     12595     12594     12597     12599     12595     12594     12597     12600
     12596     12594     12597     12598     12596     12594     12597     12599
     12596     12594     12597     12600     12597     12600     12603     12604
     12597     12600     12603     12605     12597     12600     12603     12606
     12598     12597     12600     12601     12598     12597     12600     12602
     12598     12597     12600     12603     12599     12597     12600     12601
     12599     12597     12600     12602     12599     12597     12600     12603
     12601     12600     12603     12604     12601     12600     12603     12605
     12601     12600     12603     12606     12602     12600     12603     12604
     12602     12600     12603     12605     12602     12600     12603     12606
     12607     12608     12623     12624     12607     12608     12623     12625
     12607     12608     12623     12629     12608     12607     12611     12612
     12608     12607     12611     12613     12608     12607     12611     12614
     12608     12607     12615     12616     12608     12607     12615     12617
     12608     12607     12615     12618     12608     12607     12619     12620
     12608     12607     12619     12621     12608     12607     12619     12622
     12608     12623     12629     12626     12609     12608     12607     12611
     12609     12608     12607     12615     12609     12608     12607     12619
     12609     12608     12623     12624     12609     12608     12623     12625
     12609     12608     12623     12629     12610     12608     12607     12611
     12610     12608     12607     12615     12610     12608     12607     12619
     12610     12608     12623     12624     12610     12608     12623     12625
     12610     12608     12623     12629     12611     12607     12608     12623
     12611     12607     12615     12616     12611     12607     12615     12617
     12611     12607     12615     12618     12611     12607     12619     12620
     12611     12607     12619     12621     12611     12607     12619     12622
     12612     12611     12607     12615     12612     12611     12607     12619
     12613     12611     12607     12615     12613     12611     12607     12619
     12614     12611     12607     12615     12614     12611     12607     12619
     12615     12607     12608     12623     12615     12607     12619     12620
     12615     12607     12619     12621     12615     12607     12619     12622
     12616     12615     12607     12619     12617     12615     12607     12619
     12618     12615     12607     12619     12619     12607     12608     12623
     12623     12629     12626     12627     12623     12629     12626     12628
     12623     12629     12626     12630     12624     12623     12629     12626
     12625     12623     12629     12626     12626     12630     12631     12632
     12626     12630     12631     12633     12626     12630     12631     12634
     12627     12626     12630     12631     12628     12626     12630     12631
     12629     12626     12630     12631     12630     12631     12634     12635
     12630     12631     12634     12636     12630     12631     12634     12642
     12631     12634     12636     12637     12631     12634     12642     12643
     12631     12634     12642     12644     12631     12634     12642     12645
     12632     12631     12634     12635     12632     12631     12634     12636
     12632     12631     12634     12642     12633     12631     12634     12635
     12633     12631     12634     12636     12633     12631     12634     12642
     12634     12636     12637     12638     12634     12636     12637     12639
     12634     12642     12645     12646     12635     12634     12636     12637
     12635     12634     12642     12643     12635     12634     12642     12644
     12635     12634     12642     12645     12636     12634     12642     12643
     12636     12634     12642     12644     12636     12634     12642     12645
     12636     12637     12639     12640     12636     12637     12639     12641
     12636     12637     12639     12651     12637     12636     12634     12642
     12637     12639     12651     12652     12637     12639     12651     12653
     12637     12639     12651     12654     12638     12637     12639     12640
     12638     12637     12639     12641     12638     12637     12639     12651
     12639     12651     12654     12655     12639     12651     12654     12656
     12639     12651     12654     12657     12640     12639     12651     12652
     12640     12639     12651     12653     12640     12639     12651     12654
     12641     12639     12651     12652     12641     12639     12651     12653
     12641     12639     12651     12654     12642     12645     12646     12647
     12642     12645     12646     12648     12643     12642     12645     12646
     12644     12642     12645     12646     12645     12646     12648     12649
     12645     12646     12648     12650     12645     12646     12648     12698
     12646     12648     12698     12699     12646     12648     12698     12700
     12646     12648     12698     12701     12647     12646     12648     12649
     12647     12646     12648     12650     12647     12646     12648     12698
     12648     12698     12701     12702     12648     12698     12701     12703
     12648     12698     12701     12704     12649     12648     12698     12699
     12649     12648     12698     12700     12649     12648     12698     12701
     12650     12648     12698     12699     12650     12648     12698     12700
     12650     12648     12698     12701     12651     12654     12657     12658
     12651     12654     12657     12659     12651     12654     12657     12660
     12652     12651     12654     12655     12652     12651     12654     12656
     12652     12651     12654     12657     12653     12651     12654     12655
     12653     12651     12654     12656     12653     12651     12654     12657
     12654     12657     12660     12661     12654     12657     12660     12662
     12654     12657     12660     12663     12655     12654     12657     12658
     12655     12654     12657     12659     12655     12654     12657     12660
     12656     12654     12657     12658     12656     12654     12657     12659
     12656     12654     12657     12660     12657     12660     12663     12664
     12657     12660     12663     12665     12657     12660     12663     12666
     12658     12657     12660     12661     12658     12657     12660     12662
     12658     12657     12660     12663     12659     12657     12660     12661
     12659     12657     12660     12662     12659     12657     12660     12663
     12660     12663     12666     12667     12660     12663     12666     12668
     12660     12663     12666     12669     12661     12660     12663     12664
     12661     12660     12663     12665     12661     12660     12663     12666
     12662     12660     12663     12664     12662     12660     12663     12665
     12662     12660     12663     12666     12663     12666     12669     12670
     12663     12666     12669     12671     12664     12663     12666     12667
     12664     12663     12666     12668     12664     12663     12666     12669
     12665     12663     12666     12667     12665     12663     12666     12668
     12665     12663     12666     12669     12666     12669     12671     12672
     12666     12669     12671     12673     12667     12666     12669     12670
     12667     12666     12669     12671     12668     12666     12669     12670
     12668     12666     12669     12671     12669     12671     12673     12674
     12669     12671     12673     12675     12669     12671     12673     12676
     12670     12669     12671     12672     12670     12669     12671     12673
     12671     12673     12676     12677     12671     12673     12676     12678
     12671     12673     12676     12679     12672     12671     12673     12674
     12672     12671     12673     12675     12672     12671     12673     12676
     12673     12676     12679     12680     12673     12676     12679     12681
     12673     12676     12679     12682     12674     12673     12676     12677
     12674     12673     12676     12678     12674     12673     12676     12679
     12675     12673     12676     12677     12675     12673     12676     12678
     12675     12673     12676     12679     12676     12679     12682     12683
     12676     12679     12682     12684     12676     12679     12682     12685
     12677     12676     12679     12680     12677     12676     12679     12681
     12677     12676     12679     12682     12678     12676     12679     12680
     12678     12676     12679     12681     12678     12676     12679     12682
     12679     12682     12685     12686     12679     12682     12685     12687
     12679     12682     12685     12688     12680     12679     12682     12683
     12680     12679     12682     12684     12680     12679     12682     12685
     12681     12679     12682     12683     12681     12679     12682     12684
     12681     12679     12682     12685     12682     12685     12688     12689
     12682     12685     12688     12690     12682     12685     12688     12691
     12683     12682     12685     12686     12683     12682     12685     12687
     12683     12682     12685     12688     12684     12682     12685     12686
     12684     12682     12685     12687     12684     12682     12685     12688
     12685     12688     12691     12692     12685     12688     12691     12693
     12685     12688     12691     12694     12686     12685     12688     12689
     12686     12685     12688     12690     12686     12685     12688     12691
     12687     12685     12688     12689     12687     12685     12688     12690
     12687     12685     12688     12691     12688     12691     12694     12695
     12688     12691     12694     12696     12688     12691     12694     12697
     12689     12688     12691     12692     12689     12688     12691     12693
     12689     12688     12691     12694     12690     12688     12691     12692
     12690     12688     12691     12693     12690     12688     12691     12694
     12692     12691     12694     12695     12692     12691     12694     12696
     12692     12691     12694     12697     12693     12691     12694     12695
     12693     12691     12694     12696     12693     12691     12694     12697
     12698     12701     12704     12705     12698     12701     12704     12706
     12698     12701     12704     12707     12699     12698     12701     12702
     12699     12698     12701     12703     12699     12698     12701     12704
     12700     12698     12701     12702     12700     12698     12701     12703
     12700     12698     12701     12704     12701     12704     12707     12708
     12701     12704     12707     12709     12701     12704     12707     12710
     12702     12701     12704     12705     12702     12701     12704     12706
     12702     12701     12704     12707     12703     12701     12704     12705
     12703     12701     12704     12706     12703     12701     12704     12707
     12704     12707     12710     12711     12704     12707     12710     12712
     12704     12707     12710     12713     12705     12704     12707     12708
     12705     12704     12707     12709     12705     12704     12707     12710
     12706     12704     12707     12708     12706     12704     12707     12709
     12706     12704     12707     12710     12707     12710     12713     12714
     12707     12710     12713     12715     12707     12710     12713     12716
     12708     12707     12710     12711     12708     12707     12710     12712
     12708     12707     12710     12713     12709     12707     12710     12711
     12709     12707     12710     12712     12709     12707     12710     12713
     12710     12713     12716     12717     12710     12713     12716     12718
     12710     12713     12716     12719     12711     12710     12713     12714
     12711     12710     12713     12715     12711     12710     12713     12716
     12712     12710     12713     12714     12712     12710     12713     12715
     12712     12710     12713     12716     12713     12716     12719     12720
     12713     12716     12719     12721     12713     12716     12719     12722
     12714     12713     12716     12717     12714     12713     12716     12718
     12714     12713     12716     12719     12715     12713     12716     12717
     12715     12713     12716     12718     12715     12713     12716     12719
     12716     12719     12722     12723     12716     12719     12722     12724
     12716     12719     12722     12725     12717     12716     12719     12720
     12717     12716     12719     12721     12717     12716     12719     12722
     12718     12716     12719     12720     12718     12716     12719     12721
     12718     12716     12719     12722     12719     12722     12725     12726
     12719     12722     12725     12727     12719     12722     12725     12728
     12720     12719     12722     12723     12720     12719     12722     12724
     12720     12719     12722     12725     12721     12719     12722     12723
     12721     12719     12722     12724     12721     12719     12722     12725
     12722     12725     12728     12729     12722     12725     12728     12730
     12722     12725     12728     12731     12723     12722     12725     12726
     12723     12722     12725     12727     12723     12722     12725     12728
     12724     12722     12725     12726     12724     12722     12725     12727
     12724     12722     12725     12728     12725     12728     12731     12732
     12725     12728     12731     12733     12725     12728     12731     12734
     12726     12725     12728     12729     12726     12725     12728     12730
     12726     12725     12728     12731     12727     12725     12728     12729
     12727     12725     12728     12730     12727     12725     12728     12731
     12728     12731     12734     12735     12728     12731     12734     12736
     12728     12731     12734     12737     12729     12728     12731     12732
     12729     12728     12731     12733     12729     12728     12731     12734
     12730     12728     12731     12732     12730     12728     12731     12733
     12730     12728     12731     12734     12731     12734     12737     12738
     12731     12734     12737     12739     12731     12734     12737     12740
     12732     12731     12734     12735     12732     12731     12734     12736
     12732     12731     12734     12737     12733     12731     12734     12735
     12733     12731     12734     12736     12733     12731     12734     12737
     12735     12734     12737     12738     12735     12734     12737     12739
     12735     12734     12737     12740     12736     12734     12737     12738
     12736     12734     12737     12739     12736     12734     12737     12740
     12741     12742     12757     12758     12741     12742     12757     12759
     12741     12742     12757     12763     12742     12741     12745     12746
     12742     12741     12745     12747     12742     12741     12745     12748
     12742     12741     12749     12750     12742     12741     12749     12751
     12742     12741     12749     12752     12742     12741     12753     12754
     12742     12741     12753     12755     12742     12741     12753     12756
     12742     12757     12763     12760     12743     12742     12741     12745
     12743     12742     12741     12749     12743     12742     12741     12753
     12743     12742     12757     12758     12743     12742     12757     12759
     12743     12742     12757     12763     12744     12742     12741     12745
     12744     12742     12741     12749     12744     12742     12741     12753
     12744     12742     12757     12758     12744     12742     12757     12759
     12744     12742     12757     12763     12745     12741     12742     12757
     12745     12741     12749     12750     12745     12741     12749     12751
     12745     12741     12749     12752     12745     12741     12753     12754
     12745     12741     12753     12755     12745     12741     12753     12756
     12746     12745     12741     12749     12746     12745     12741     12753
     12747     12745     12741     12749     12747     12745     12741     12753
     12748     12745     12741     12749     12748     12745     12741     12753
     12749     12741     12742     12757     12749     12741     12753     12754
     12749     12741     12753     12755     12749     12741     12753     12756
     12750     12749     12741     12753     12751     12749     12741     12753
     12752     12749     12741     12753     12753     12741     12742     12757
     12757     12763     12760     12761     12757     12763     12760     12762
     12757     12763     12760     12764     12758     12757     12763     12760
     12759     12757     12763     12760     12760     12764     12765     12766
     12760     12764     12765     12767     12760     12764     12765     12768
     12761     12760     12764     12765     12762     12760     12764     12765
     12763     12760     12764     12765     12764     12765     12768     12769
     12764     12765     12768     12770     12764     12765     12768     12776
     12765     12768     12770     12771     12765     12768     12776     12777
     12765     12768     12776     12778     12765     12768     12776     12779
     12766     12765     12768     12769     12766     12765     12768     12770
     12766     12765     12768     12776     12767     12765     12768     12769
     12767     12765     12768     12770     12767     12765     12768     12776
     12768     12770     12771     12772     12768     12770     12771     12773
     12768     12776     12779     12780     12769     12768     12770     12771
     12769     12768     12776     12777     12769     12768     12776     12778
     12769     12768     12776     12779     12770     12768     12776     12777
     12770     12768     12776     12778     12770     12768     12776     12779
     12770     12771     12773     12774     12770     12771     12773     12775
     12770     12771     12773     12785     12771     12770     12768     12776
     12771     12773     12785     12786     12771     12773     12785     12787
     12771     12773     12785     12788     12772     12771     12773     12774
     12772     12771     12773     12775     12772     12771     12773     12785
     12773     12785     12788     12789     12773     12785     12788     12790
     12773     12785     12788     12791     12774     12773     12785     12786
     12774     12773     12785     12787     12774     12773     12785     12788
     12775     12773     12785     12786     12775     12773     12785     12787
     12775     12773     12785     12788     12776     12779     12780     12781
     12776     12779     12780     12782     12777     12776     12779     12780
     12778     12776     12779     12780     12779     12780     12782     12783
     12779     12780     12782     12784     12779     12780     12782     12832
     12780     12782     12832     12833     12780     12782     12832     12834
     12780     12782     12832     12835     12781     12780     12782     12783
     12781     12780     12782     12784     12781     12780     12782     12832
     12782     12832     12835     12836     12782     12832     12835     12837
     12782     12832     12835     12838     12783     12782     12832     12833
     12783     12782     12832     12834     12783     12782     12832     12835
     12784     12782     12832     12833     12784     12782     12832     12834
     12784     12782     12832     12835     12785     12788     12791     12792
     12785     12788     12791     12793     12785     12788     12791     12794
     12786     12785     12788     12789     12786     12785     12788     12790
     12786     12785     12788     12791     12787     12785     12788     12789
     12787     12785     12788     12790     12787     12785     12788     12791
     12788     12791     12794     12795     12788     12791     12794     12796
     12788     12791     12794     12797     12789     12788     12791     12792
     12789     12788     12791     12793     12789     12788     12791     12794
     12790     12788     12791     12792     12790     12788     12791     12793
     12790     12788     12791     12794     12791     12794     12797     12798
     12791     12794     12797     12799     12791     12794     12797     12800
     12792     12791     12794     12795     12792     12791     12794     12796
     12792     12791     12794     12797     12793     12791     12794     12795
     12793     12791     12794     12796     12793     12791     12794     12797
     12794     12797     12800     12801     12794     12797     12800     12802
     12794     12797     12800     12803     12795     12794     12797     12798
     12795     12794     12797     12799     12795     12794     12797     12800
     12796     12794     12797     12798     12796     12794     12797     12799
     12796     12794     12797     12800     12797     12800     12803     12804
     12797     12800     12803     12805     12798     12797     12800     12801
     12798     12797     12800     12802     12798     12797     12800     12803
     12799     12797     12800     12801     12799     12797     12800     12802
     12799     12797     12800     12803     12800     12803     12805     12806
     12800     12803     12805     12807     12801     12800     12803     12804
     12801     12800     12803     12805     12802     12800     12803     12804
     12802     12800     12803     12805     12803     12805     12807     12808
     12803     12805     12807     12809     12803     12805     12807     12810
     12804     12803     12805     12806     12804     12803     12805     12807
     12805     12807     12810     12811     12805     12807     12810     12812
     12805     12807     12810     12813     12806     12805     12807     12808
     12806     12805     12807     12809     12806     12805     12807     12810
     12807     12810     12813     12814     12807     12810     12813     12815
     12807     12810     12813     12816     12808     12807     12810     12811
     12808     12807     12810     12812     12808     12807     12810     12813
     12809     12807     12810     12811     12809     12807     12810     12812
     12809     12807     12810     12813     12810     12813     12816     12817
     12810     12813     12816     12818     12810     12813     12816     12819
     12811     12810     12813     12814     12811     12810     12813     12815
     12811     12810     12813     12816     12812     12810     12813     12814
     12812     12810     12813     12815     12812     12810     12813     12816
     12813     12816     12819     12820     12813     12816     12819     12821
     12813     12816     12819     12822     12814     12813     12816     12817
     12814     12813     12816     12818     12814     12813     12816     12819
     12815     12813     12816     12817     12815     12813     12816     12818
     12815     12813     12816     12819     12816     12819     12822     12823
     12816     12819     12822     12824     12816     12819     12822     12825
     12817     12816     12819     12820     12817     12816     12819     12821
     12817     12816     12819     12822     12818     12816     12819     12820
     12818     12816     12819     12821     12818     12816     12819     12822
     12819     12822     12825     12826     12819     12822     12825     12827
     12819     12822     12825     12828     12820     12819     12822     12823
     12820     12819     12822     12824     12820     12819     12822     12825
     12821     12819     12822     12823     12821     12819     12822     12824
     12821     12819     12822     12825     12822     12825     12828     12829
     12822     12825     12828     12830     12822     12825     12828     12831
     12823     12822     12825     12826     12823     12822     12825     12827
     12823     12822     12825     12828     12824     12822     12825     12826
     12824     12822     12825     12827     12824     12822     12825     12828
     12826     12825     12828     12829     12826     12825     12828     12830
     12826     12825     12828     12831     12827     12825     12828     12829
     12827     12825     12828     12830     12827     12825     12828     12831
     12832     12835     12838     12839     12832     12835     12838     12840
     12832     12835     12838     12841     12833     12832     12835     12836
     12833     12832     12835     12837     12833     12832     12835     12838
     12834     12832     12835     12836     12834     12832     12835     12837
     12834     12832     12835     12838     12835     12838     12841     12842
     12835     12838     12841     12843     12835     12838     12841     12844
     12836     12835     12838     12839     12836     12835     12838     12840
     12836     12835     12838     12841     12837     12835     12838     12839
     12837     12835     12838     12840     12837     12835     12838     12841
     12838     12841     12844     12845     12838     12841     12844     12846
     12838     12841     12844     12847     12839     12838     12841     12842
     12839     12838     12841     12843     12839     12838     12841     12844
     12840     12838     12841     12842     12840     12838     12841     12843
     12840     12838     12841     12844     12841     12844     12847     12848
     12841     12844     12847     12849     12841     12844     12847     12850
     12842     12841     12844     12845     12842     12841     12844     12846
     12842     12841     12844     12847     12843     12841     12844     12845
     12843     12841     12844     12846     12843     12841     12844     12847
     12844     12847     12850     12851     12844     12847     12850     12852
     12844     12847     12850     12853     12845     12844     12847     12848
     12845     12844     12847     12849     12845     12844     12847     12850
     12846     12844     12847     12848     12846     12844     12847     12849
     12846     12844     12847     12850     12847     12850     12853     12854
     12847     12850     12853     12855     12847     12850     12853     12856
     12848     12847     12850     12851     12848     12847     12850     12852
     12848     12847     12850     12853     12849     12847     12850     12851
     12849     12847     12850     12852     12849     12847     12850     12853
     12850     12853     12856     12857     12850     12853     12856     12858
     12850     12853     12856     12859     12851     12850     12853     12854
     12851     12850     12853     12855     12851     12850     12853     12856
     12852     12850     12853     12854     12852     12850     12853     12855
     12852     12850     12853     12856     12853     12856     12859     12860
     12853     12856     12859     12861     12853     12856     12859     12862
     12854     12853     12856     12857     12854     12853     12856     12858
     12854     12853     12856     12859     12855     12853     12856     12857
     12855     12853     12856     12858     12855     12853     12856     12859
     12856     12859     12862     12863     12856     12859     12862     12864
     12856     12859     12862     12865     12857     12856     12859     12860
     12857     12856     12859     12861     12857     12856     12859     12862
     12858     12856     12859     12860     12858     12856     12859     12861
     12858     12856     12859     12862     12859     12862     12865     12866
     12859     12862     12865     12867     12859     12862     12865     12868
     12860     12859     12862     12863     12860     12859     12862     12864
     12860     12859     12862     12865     12861     12859     12862     12863
     12861     12859     12862     12864     12861     12859     12862     12865
     12862     12865     12868     12869     12862     12865     12868     12870
     12862     12865     12868     12871     12863     12862     12865     12866
     12863     12862     12865     12867     12863     12862     12865     12868
     12864     12862     12865     12866     12864     12862     12865     12867
     12864     12862     12865     12868     12865     12868     12871     12872
     12865     12868     12871     12873     12865     12868     12871     12874
     12866     12865     12868     12869     12866     12865     12868     12870
     12866     12865     12868     12871     12867     12865     12868     12869
     12867     12865     12868     12870     12867     12865     12868     12871
     12869     12868     12871     12872     12869     12868     12871     12873
     12869     12868     12871     12874     12870     12868     12871     12872
     12870     12868     12871     12873     12870     12868     12871     12874
     12875     12876     12891     12892     12875     12876     12891     12893
     12875     12876     12891     12897     12876     12875     12879     12880
     12876     12875     12879     12881     12876     12875     12879     12882
     12876     12875     12883     12884     12876     12875     12883     12885
     12876     12875     12883     12886     12876     12875     12887     12888
     12876     12875     12887     12889     12876     12875     12887     12890
     12876     12891     12897     12894     12877     12876     12875     12879
     12877     12876     12875     12883     12877     12876     12875     12887
     12877     12876     12891     12892     12877     12876     12891     12893
     12877     12876     12891     12897     12878     12876     12875     12879
     12878     12876     12875     12883     12878     12876     12875     12887
     12878     12876     12891     12892     12878     12876     12891     12893
     12878     12876     12891     12897     12879     12875     12876     12891
     12879     12875     12883     12884     12879     12875     12883     12885
     12879     12875     12883     12886     12879     12875     12887     12888
     12879     12875     12887     12889     12879     12875     12887     12890
     12880     12879     12875     12883     12880     12879     12875     12887
     12881     12879     12875     12883     12881     12879     12875     12887
     12882     12879     12875     12883     12882     12879     12875     12887
     12883     12875     12876     12891     12883     12875     12887     12888
     12883     12875     12887     12889     12883     12875     12887     12890
     12884     12883     12875     12887     12885     12883     12875     12887
     12886     12883     12875     12887     12887     12875     12876     12891
     12891     12897     12894     12895     12891     12897     12894     12896
     12891     12897     12894     12898     12892     12891     12897     12894
     12893     12891     12897     12894     12894     12898     12899     12900
     12894     12898     12899     12901     12894     12898     12899     12902
     12895     12894     12898     12899     12896     12894     12898     12899
     12897     12894     12898     12899     12898     12899     12902     12903
     12898     12899     12902     12904     12898     12899     12902     12910
     12899     12902     12904     12905     12899     12902     12910     12911
     12899     12902     12910     12912     12899     12902     12910     12913
     12900     12899     12902     12903     12900     12899     12902     12904
     12900     12899     12902     12910     12901     12899     12902     12903
     12901     12899     12902     12904     12901     12899     12902     12910
     12902     12904     12905     12906     12902     12904     12905     12907
     12902     12910     12913     12914     12903     12902     12904     12905
     12903     12902     12910     12911     12903     12902     12910     12912
     12903     12902     12910     12913     12904     12902     12910     12911
     12904     12902     12910     12912     12904     12902     12910     12913
     12904     12905     12907     12908     12904     12905     12907     12909
     12904     12905     12907     12919     12905     12904     12902     12910
     12905     12907     12919     12920     12905     12907     12919     12921
     12905     12907     12919     12922     12906     12905     12907     12908
     12906     12905     12907     12909     12906     12905     12907     12919
     12907     12919     12922     12923     12907     12919     12922     12924
     12907     12919     12922     12925     12908     12907     12919     12920
     12908     12907     12919     12921     12908     12907     12919     12922
     12909     12907     12919     12920     12909     12907     12919     12921
     12909     12907     12919     12922     12910     12913     12914     12915
     12910     12913     12914     12916     12911     12910     12913     12914
     12912     12910     12913     12914     12913     12914     12916     12917
     12913     12914     12916     12918     12913     12914     12916     12966
     12914     12916     12966     12967     12914     12916     12966     12968
     12914     12916     12966     12969     12915     12914     12916     12917
     12915     12914     12916     12918     12915     12914     12916     12966
     12916     12966     12969     12970     12916     12966     12969     12971
     12916     12966     12969     12972     12917     12916     12966     12967
     12917     12916     12966     12968     12917     12916     12966     12969
     12918     12916     12966     12967     12918     12916     12966     12968
     12918     12916     12966     12969     12919     12922     12925     12926
     12919     12922     12925     12927     12919     12922     12925     12928
     12920     12919     12922     12923     12920     12919     12922     12924
     12920     12919     12922     12925     12921     12919     12922     12923
     12921     12919     12922     12924     12921     12919     12922     12925
     12922     12925     12928     12929     12922     12925     12928     12930
     12922     12925     12928     12931     12923     12922     12925     12926
     12923     12922     12925     12927     12923     12922     12925     12928
     12924     12922     12925     12926     12924     12922     12925     12927
     12924     12922     12925     12928     12925     12928     12931     12932
     12925     12928     12931     12933     12925     12928     12931     12934
     12926     12925     12928     12929     12926     12925     12928     12930
     12926     12925     12928     12931     12927     12925     12928     12929
     12927     12925     12928     12930     12927     12925     12928     12931
     12928     12931     12934     12935     12928     12931     12934     12936
     12928     12931     12934     12937     12929     12928     12931     12932
     12929     12928     12931     12933     12929     12928     12931     12934
     12930     12928     12931     12932     12930     12928     12931     12933
     12930     12928     12931     12934     12931     12934     12937     12938
     12931     12934     12937     12939     12932     12931     12934     12935
     12932     12931     12934     12936     12932     12931     12934     12937
     12933     12931     12934     12935     12933     12931     12934     12936
     12933     12931     12934     12937     12934     12937     12939     12940
     12934     12937     12939     12941     12935     12934     12937     12938
     12935     12934     12937     12939     12936     12934     12937     12938
     12936     12934     12937     12939     12937     12939     12941     12942
     12937     12939     12941     12943     12937     12939     12941     12944
     12938     12937     12939     12940     12938     12937     12939     12941
     12939     12941     12944     12945     12939     12941     12944     12946
     12939     12941     12944     12947     12940     12939     12941     12942
     12940     12939     12941     12943     12940     12939     12941     12944
     12941     12944     12947     12948     12941     12944     12947     12949
     12941     12944     12947     12950     12942     12941     12944     12945
     12942     12941     12944     12946     12942     12941     12944     12947
     12943     12941     12944     12945     12943     12941     12944     12946
     12943     12941     12944     12947     12944     12947     12950     12951
     12944     12947     12950     12952     12944     12947     12950     12953
     12945     12944     12947     12948     12945     12944     12947     12949
     12945     12944     12947     12950     12946     12944     12947     12948
     12946     12944     12947     12949     12946     12944     12947     12950
     12947     12950     12953     12954     12947     12950     12953     12955
     12947     12950     12953     12956     12948     12947     12950     12951
     12948     12947     12950     12952     12948     12947     12950     12953
     12949     12947     12950     12951     12949     12947     12950     12952
     12949     12947     12950     12953     12950     12953     12956     12957
     12950     12953     12956     12958     12950     12953     12956     12959
     12951     12950     12953     12954     12951     12950     12953     12955
     12951     12950     12953     12956     12952     12950     12953     12954
     12952     12950     12953     12955     12952     12950     12953     12956
     12953     12956     12959     12960     12953     12956     12959     12961
     12953     12956     12959     12962     12954     12953     12956     12957
     12954     12953     12956     12958     12954     12953     12956     12959
     12955     12953     12956     12957     12955     12953     12956     12958
     12955     12953     12956     12959     12956     12959     12962     12963
     12956     12959     12962     12964     12956     12959     12962     12965
     12957     12956     12959     12960     12957     12956     12959     12961
     12957     12956     12959     12962     12958     12956     12959     12960
     12958     12956     12959     12961     12958     12956     12959     12962
     12960     12959     12962     12963     12960     12959     12962     12964
     12960     12959     12962     12965     12961     12959     12962     12963
     12961     12959     12962     12964     12961     12959     12962     12965
     12966     12969     12972     12973     12966     12969     12972     12974
     12966     12969     12972     12975     12967     12966     12969     12970
     12967     12966     12969     12971     12967     12966     12969     12972
     12968     12966     12969     12970     12968     12966     12969     12971
     12968     12966     12969     12972     12969     12972     12975     12976
     12969     12972     12975     12977     12969     12972     12975     12978
     12970     12969     12972     12973     12970     12969     12972     12974
     12970     12969     12972     12975     12971     12969     12972     12973
     12971     12969     12972     12974     12971     12969     12972     12975
     12972     12975     12978     12979     12972     12975     12978     12980
     12972     12975     12978     12981     12973     12972     12975     12976
     12973     12972     12975     12977     12973     12972     12975     12978
     12974     12972     12975     12976     12974     12972     12975     12977
     12974     12972     12975     12978     12975     12978     12981     12982
     12975     12978     12981     12983     12975     12978     12981     12984
     12976     12975     12978     12979     12976     12975     12978     12980
     12976     12975     12978     12981     12977     12975     12978     12979
     12977     12975     12978     12980     12977     12975     12978     12981
     12978     12981     12984     12985     12978     12981     12984     12986
     12978     12981     12984     12987     12979     12978     12981     12982
     12979     12978     12981     12983     12979     12978     12981     12984
     12980     12978     12981     12982     12980     12978     12981     12983
     12980     12978     12981     12984     12981     12984     12987     12988
     12981     12984     12987     12989     12981     12984     12987     12990
     12982     12981     12984     12985     12982     12981     12984     12986
     12982     12981     12984     12987     12983     12981     12984     12985
     12983     12981     12984     12986     12983     12981     12984     12987
     12984     12987     12990     12991     12984     12987     12990     12992
     12984     12987     12990     12993     12985     12984     12987     12988
     12985     12984     12987     12989     12985     12984     12987     12990
     12986     12984     12987     12988     12986     12984     12987     12989
     12986     12984     12987     12990     12987     12990     12993     12994
     12987     12990     12993     12995     12987     12990     12993     12996
     12988     12987     12990     12991     12988     12987     12990     12992
     12988     12987     12990     12993     12989     12987     12990     12991
     12989     12987     12990     12992     12989     12987     12990     12993
     12990     12993     12996     12997     12990     12993     12996     12998
     12990     12993     12996     12999     12991     12990     12993     12994
     12991     12990     12993     12995     12991     12990     12993     12996
     12992     12990     12993     12994     12992     12990     12993     12995
     12992     12990     12993     12996     12993     12996     12999     13000
     12993     12996     12999     13001     12993     12996     12999     13002
     12994     12993     12996     12997     12994     12993     12996     12998
     12994     12993     12996     12999     12995     12993     12996     12997
     12995     12993     12996     12998     12995     12993     12996     12999
     12996     12999     13002     13003     12996     12999     13002     13004
     12996     12999     13002     13005     12997     12996     12999     13000
     12997     12996     12999     13001     12997     12996     12999     13002
     12998     12996     12999     13000     12998     12996     12999     13001
     12998     12996     12999     13002     12999     13002     13005     13006
     12999     13002     13005     13007     12999     13002     13005     13008
     13000     12999     13002     13003     13000     12999     13002     13004
     13000     12999     13002     13005     13001     12999     13002     13003
     13001     12999     13002     13004     13001     12999     13002     13005
     13003     13002     13005     13006     13003     13002     13005     13007
     13003     13002     13005     13008     13004     13002     13005     13006
     13004     13002     13005     13007     13004     13002     13005     13008
     13009     13010     13025     13026     13009     13010     13025     13027
     13009     13010     13025     13031     13010     13009     13013     13014
     13010     13009     13013     13015     13010     13009     13013     13016
     13010     13009     13017     13018     13010     13009     13017     13019
     13010     13009     13017     13020     13010     13009     13021     13022
     13010     13009     13021     13023     13010     13009     13021     13024
     13010     13025     13031     13028     13011     13010     13009     13013
     13011     13010     13009     13017     13011     13010     13009     13021
     13011     13010     13025     13026     13011     13010     13025     13027
     13011     13010     13025     13031     13012     13010     13009     13013
     13012     13010     13009     13017     13012     13010     13009     13021
     13012     13010     13025     13026     13012     13010     13025     13027
     13012     13010     13025     13031     13013     13009     13010     13025
     13013     13009     13017     13018     13013     13009     13017     13019
     13013     13009     13017     13020     13013     13009     13021     13022
     13013     13009     13021     13023     13013     13009     13021     13024
     13014     13013     13009     13017     13014     13013     13009     13021
     13015     13013     13009     13017     13015     13013     13009     13021
     13016     13013     13009     13017     13016     13013     13009     13021
     13017     13009     13010     13025     13017     13009     13021     13022
     13017     13009     13021     13023     13017     13009     13021     13024
     13018     13017     13009     13021     13019     13017     13009     13021
     13020     13017     13009     13021     13021     13009     13010     13025
     13025     13031     13028     13029     13025     13031     13028     13030
     13025     13031     13028     13032     13026     13025     13031     13028
     13027     13025     13031     13028     13028     13032     13033     13034
     13028     13032     13033     13035     13028     13032     13033     13036
     13029     13028     13032     13033     13030     13028     13032     13033
     13031     13028     13032     13033     13032     13033     13036     13037
     13032     13033     13036     13038     13032     13033     13036     13044
     13033     13036     13038     13039     13033     13036     13044     13045
     13033     13036     13044     13046     13033     13036     13044     13047
     13034     13033     13036     13037     13034     13033     13036     13038
     13034     13033     13036     13044     13035     13033     13036     13037
     13035     13033     13036     13038     13035     13033     13036     13044
     13036     13038     13039     13040     13036     13038     13039     13041
     13036     13044     13047     13048     13037     13036     13038     13039
     13037     13036     13044     13045     13037     13036     13044     13046
     13037     13036     13044     13047     13038     13036     13044     13045
     13038     13036     13044     13046     13038     13036     13044     13047
     13038     13039     13041     13042     13038     13039     13041     13043
     13038     13039     13041     13053     13039     13038     13036     13044
     13039     13041     13053     13054     13039     13041     13053     13055
     13039     13041     13053     13056     13040     13039     13041     13042
     13040     13039     13041     13043     13040     13039     13041     13053
     13041     13053     13056     13057     13041     13053     13056     13058
     13041     13053     13056     13059     13042     13041     13053     13054
     13042     13041     13053     13055     13042     13041     13053     13056
     13043     13041     13053     13054     13043     13041     13053     13055
     13043     13041     13053     13056     13044     13047     13048     13049
     13044     13047     13048     13050     13045     13044     13047     13048
     13046     13044     13047     13048     13047     13048     13050     13051
     13047     13048     13050     13052     13047     13048     13050     13100
     13048     13050     13100     13101     13048     13050     13100     13102
     13048     13050     13100     13103     13049     13048     13050     13051
     13049     13048     13050     13052     13049     13048     13050     13100
     13050     13100     13103     13104     13050     13100     13103     13105
     13050     13100     13103     13106     13051     13050     13100     13101
     13051     13050     13100     13102     13051     13050     13100     13103
     13052     13050     13100     13101     13052     13050     13100     13102
     13052     13050     13100     13103     13053     13056     13059     13060
     13053     13056     13059     13061     13053     13056     13059     13062
     13054     13053     13056     13057     13054     13053     13056     13058
     13054     13053     13056     13059     13055     13053     13056     13057
     13055     13053     13056     13058     13055     13053     13056     13059
     13056     13059     13062     13063     13056     13059     13062     13064
     13056     13059     13062     13065     13057     13056     13059     13060
     13057     13056     13059     13061     13057     13056     13059     13062
     13058     13056     13059     13060     13058     13056     13059     13061
     13058     13056     13059     13062     13059     13062     13065     13066
     13059     13062     13065     13067     13059     13062     13065     13068
     13060     13059     13062     13063     13060     13059     13062     13064
     13060     13059     13062     13065     13061     13059     13062     13063
     13061     13059     13062     13064     13061     13059     13062     13065
     13062     13065     13068     13069     13062     13065     13068     13070
     13062     13065     13068     13071     13063     13062     13065     13066
     13063     13062     13065     13067     13063     13062     13065     13068
     13064     13062     13065     13066     13064     13062     13065     13067
     13064     13062     13065     13068     13065     13068     13071     13072
     13065     13068     13071     13073     13066     13065     13068     13069
     13066     13065     13068     13070     13066     13065     13068     13071
     13067     13065     13068     13069     13067     13065     13068     13070
     13067     13065     13068     13071     13068     13071     13073     13074
     13068     13071     13073     13075     13069     13068     13071     13072
     13069     13068     13071     13073     13070     13068     13071     13072
     13070     13068     13071     13073     13071     13073     13075     13076
     13071     13073     13075     13077     13071     13073     13075     13078
     13072     13071     13073     13074     13072     13071     13073     13075
     13073     13075     13078     13079     13073     13075     13078     13080
     13073     13075     13078     13081     13074     13073     13075     13076
     13074     13073     13075     13077     13074     13073     13075     13078
     13075     13078     13081     13082     13075     13078     13081     13083
     13075     13078     13081     13084     13076     13075     13078     13079
     13076     13075     13078     13080     13076     13075     13078     13081
     13077     13075     13078     13079     13077     13075     13078     13080
     13077     13075     13078     13081     13078     13081     13084     13085
     13078     13081     13084     13086     13078     13081     13084     13087
     13079     13078     13081     13082     13079     13078     13081     13083
     13079     13078     13081     13084     13080     13078     13081     13082
     13080     13078     13081     13083     13080     13078     13081     13084
     13081     13084     13087     13088     13081     13084     13087     13089
     13081     13084     13087     13090     13082     13081     13084     13085
     13082     13081     13084     13086     13082     13081     13084     13087
     13083     13081     13084     13085     13083     13081     13084     13086
     13083     13081     13084     13087     13084     13087     13090     13091
     13084     13087     13090     13092     13084     13087     13090     13093
     13085     13084     13087     13088     13085     13084     13087     13089
     13085     13084     13087     13090     13086     13084     13087     13088
     13086     13084     13087     13089     13086     13084     13087     13090
     13087     13090     13093     13094     13087     13090     13093     13095
     13087     13090     13093     13096     13088     13087     13090     13091
     13088     13087     13090     13092     13088     13087     13090     13093
     13089     13087     13090     13091     13089     13087     13090     13092
     13089     13087     13090     13093     13090     13093     13096     13097
     13090     13093     13096     13098     13090     13093     13096     13099
     13091     13090     13093     13094     13091     13090     13093     13095
     13091     13090     13093     13096     13092     13090     13093     13094
     13092     13090     13093     13095     13092     13090     13093     13096
     13094     13093     13096     13097     13094     13093     13096     13098
     13094     13093     13096     13099     13095     13093     13096     13097
     13095     13093     13096     13098     13095     13093     13096     13099
     13100     13103     13106     13107     13100     13103     13106     13108
     13100     13103     13106     13109     13101     13100     13103     13104
     13101     13100     13103     13105     13101     13100     13103     13106
     13102     13100     13103     13104     13102     13100     13103     13105
     13102     13100     13103     13106     13103     13106     13109     13110
     13103     13106     13109     13111     13103     13106     13109     13112
     13104     13103     13106     13107     13104     13103     13106     13108
     13104     13103     13106     13109     13105     13103     13106     13107
     13105     13103     13106     13108     13105     13103     13106     13109
     13106     13109     13112     13113     13106     13109     13112     13114
     13106     13109     13112     13115     13107     13106     13109     13110
     13107     13106     13109     13111     13107     13106     13109     13112
     13108     13106     13109     13110     13108     13106     13109     13111
     13108     13106     13109     13112     13109     13112     13115     13116
     13109     13112     13115     13117     13109     13112     13115     13118
     13110     13109     13112     13113     13110     13109     13112     13114
     13110     13109     13112     13115     13111     13109     13112     13113
     13111     13109     13112     13114     13111     13109     13112     13115
     13112     13115     13118     13119     13112     13115     13118     13120
     13112     13115     13118     13121     13113     13112     13115     13116
     13113     13112     13115     13117     13113     13112     13115     13118
     13114     13112     13115     13116     13114     13112     13115     13117
     13114     13112     13115     13118     13115     13118     13121     13122
     13115     13118     13121     13123     13115     13118     13121     13124
     13116     13115     13118     13119     13116     13115     13118     13120
     13116     13115     13118     13121     13117     13115     13118     13119
     13117     13115     13118     13120     13117     13115     13118     13121
     13118     13121     13124     13125     13118     13121     13124     13126
     13118     13121     13124     13127     13119     13118     13121     13122
     13119     13118     13121     13123     13119     13118     13121     13124
     13120     13118     13121     13122     13120     13118     13121     13123
     13120     13118     13121     13124     13121     13124     13127     13128
     13121     13124     13127     13129     13121     13124     13127     13130
     13122     13121     13124     13125     13122     13121     13124     13126
     13122     13121     13124     13127     13123     13121     13124     13125
     13123     13121     13124     13126     13123     13121     13124     13127
     13124     13127     13130     13131     13124     13127     13130     13132
     13124     13127     13130     13133     13125     13124     13127     13128
     13125     13124     13127     13129     13125     13124     13127     13130
     13126     13124     13127     13128     13126     13124     13127     13129
     13126     13124     13127     13130     13127     13130     13133     13134
     13127     13130     13133     13135     13127     13130     13133     13136
     13128     13127     13130     13131     13128     13127     13130     13132
     13128     13127     13130     13133     13129     13127     13130     13131
     13129     13127     13130     13132     13129     13127     13130     13133
     13130     13133     13136     13137     13130     13133     13136     13138
     13130     13133     13136     13139     13131     13130     13133     13134
     13131     13130     13133     13135     13131     13130     13133     13136
     13132     13130     13133     13134     13132     13130     13133     13135
     13132     13130     13133     13136     13133     13136     13139     13140
     13133     13136     13139     13141     13133     13136     13139     13142
     13134     13133     13136     13137     13134     13133     13136     13138
     13134     13133     13136     13139     13135     13133     13136     13137
     13135     13133     13136     13138     13135     13133     13136     13139
     13137     13136     13139     13140     13137     13136     13139     13141
     13137     13136     13139     13142     13138     13136     13139     13140
     13138     13136     13139     13141     13138     13136     13139     13142
     13143     13144     13159     13160     13143     13144     13159     13161
     13143     13144     13159     13165     13144     13143     13147     13148
     13144     13143     13147     13149     13144     13143     13147     13150
     13144     13143     13151     13152     13144     13143     13151     13153
     13144     13143     13151     13154     13144     13143     13155     13156
     13144     13143     13155     13157     13144     13143     13155     13158
     13144     13159     13165     13162     13145     13144     13143     13147
     13145     13144     13143     13151     13145     13144     13143     13155
     13145     13144     13159     13160     13145     13144     13159     13161
     13145     13144     13159     13165     13146     13144     13143     13147
     13146     13144     13143     13151     13146     13144     13143     13155
     13146     13144     13159     13160     13146     13144     13159     13161
     13146     13144     13159     13165     13147     13143     13144     13159
     13147     13143     13151     13152     13147     13143     13151     13153
     13147     13143     13151     13154     13147     13143     13155     13156
     13147     13143     13155     13157     13147     13143     13155     13158
     13148     13147     13143     13151     13148     13147     13143     13155
     13149     13147     13143     13151     13149     13147     13143     13155
     13150     13147     13143     13151     13150     13147     13143     13155
     13151     13143     13144     13159     13151     13143     13155     13156
     13151     13143     13155     13157     13151     13143     13155     13158
     13152     13151     13143     13155     13153     13151     13143     13155
     13154     13151     13143     13155     13155     13143     13144     13159
     13159     13165     13162     13163     13159     13165     13162     13164
     13159     13165     13162     13166     13160     13159     13165     13162
     13161     13159     13165     13162     13162     13166     13167     13168
     13162     13166     13167     13169     13162     13166     13167     13170
     13163     13162     13166     13167     13164     13162     13166     13167
     13165     13162     13166     13167     13166     13167     13170     13171
     13166     13167     13170     13172     13166     13167     13170     13178
     13167     13170     13172     13173     13167     13170     13178     13179
     13167     13170     13178     13180     13167     13170     13178     13181
     13168     13167     13170     13171     13168     13167     13170     13172
     13168     13167     13170     13178     13169     13167     13170     13171
     13169     13167     13170     13172     13169     13167     13170     13178
     13170     13172     13173     13174     13170     13172     13173     13175
     13170     13178     13181     13182     13171     13170     13172     13173
     13171     13170     13178     13179     13171     13170     13178     13180
     13171     13170     13178     13181     13172     13170     13178     13179
     13172     13170     13178     13180     13172     13170     13178     13181
     13172     13173     13175     13176     13172     13173     13175     13177
     13172     13173     13175     13187     13173     13172     13170     13178
     13173     13175     13187     13188     13173     13175     13187     13189
     13173     13175     13187     13190     13174     13173     13175     13176
     13174     13173     13175     13177     13174     13173     13175     13187
     13175     13187     13190     13191     13175     13187     13190     13192
     13175     13187     13190     13193     13176     13175     13187     13188
     13176     13175     13187     13189     13176     13175     13187     13190
     13177     13175     13187     13188     13177     13175     13187     13189
     13177     13175     13187     13190     13178     13181     13182     13183
     13178     13181     13182     13184     13179     13178     13181     13182
     13180     13178     13181     13182     13181     13182     13184     13185
     13181     13182     13184     13186     13181     13182     13184     13234
     13182     13184     13234     13235     13182     13184     13234     13236
     13182     13184     13234     13237     13183     13182     13184     13185
     13183     13182     13184     13186     13183     13182     13184     13234
     13184     13234     13237     13238     13184     13234     13237     13239
     13184     13234     13237     13240     13185     13184     13234     13235
     13185     13184     13234     13236     13185     13184     13234     13237
     13186     13184     13234     13235     13186     13184     13234     13236
     13186     13184     13234     13237     13187     13190     13193     13194
     13187     13190     13193     13195     13187     13190     13193     13196
     13188     13187     13190     13191     13188     13187     13190     13192
     13188     13187     13190     13193     13189     13187     13190     13191
     13189     13187     13190     13192     13189     13187     13190     13193
     13190     13193     13196     13197     13190     13193     13196     13198
     13190     13193     13196     13199     13191     13190     13193     13194
     13191     13190     13193     13195     13191     13190     13193     13196
     13192     13190     13193     13194     13192     13190     13193     13195
     13192     13190     13193     13196     13193     13196     13199     13200
     13193     13196     13199     13201     13193     13196     13199     13202
     13194     13193     13196     13197     13194     13193     13196     13198
     13194     13193     13196     13199     13195     13193     13196     13197
     13195     13193     13196     13198     13195     13193     13196     13199
     13196     13199     13202     13203     13196     13199     13202     13204
     13196     13199     13202     13205     13197     13196     13199     13200
     13197     13196     13199     13201     13197     13196     13199     13202
     13198     13196     13199     13200     13198     13196     13199     13201
     13198     13196     13199     13202     13199     13202     13205     13206
     13199     13202     13205     13207     13200     13199     13202     13203
     13200     13199     13202     13204     13200     13199     13202     13205
     13201     13199     13202     13203     13201     13199     13202     13204
     13201     13199     13202     13205     13202     13205     13207     13208
     13202     13205     13207     13209     13203     13202     13205     13206
     13203     13202     13205     13207     13204     13202     13205     13206
     13204     13202     13205     13207     13205     13207     13209     13210
     13205     13207     13209     13211     13205     13207     13209     13212
     13206     13205     13207     13208     13206     13205     13207     13209
     13207     13209     13212     13213     13207     13209     13212     13214
     13207     13209     13212     13215     13208     13207     13209     13210
     13208     13207     13209     13211     13208     13207     13209     13212
     13209     13212     13215     13216     13209     13212     13215     13217
     13209     13212     13215     13218     13210     13209     13212     13213
     13210     13209     13212     13214     13210     13209     13212     13215
     13211     13209     13212     13213     13211     13209     13212     13214
     13211     13209     13212     13215     13212     13215     13218     13219
     13212     13215     13218     13220     13212     13215     13218     13221
     13213     13212     13215     13216     13213     13212     13215     13217
     13213     13212     13215     13218     13214     13212     13215     13216
     13214     13212     13215     13217     13214     13212     13215     13218
     13215     13218     13221     13222     13215     13218     13221     13223
     13215     13218     13221     13224     13216     13215     13218     13219
     13216     13215     13218     13220     13216     13215     13218     13221
     13217     13215     13218     13219     13217     13215     13218     13220
     13217     13215     13218     13221     13218     13221     13224     13225
     13218     13221     13224     13226     13218     13221     13224     13227
     13219     13218     13221     13222     13219     13218     13221     13223
     13219     13218     13221     13224     13220     13218     13221     13222
     13220     13218     13221     13223     13220     13218     13221     13224
     13221     13224     13227     13228     13221     13224     13227     13229
     13221     13224     13227     13230     13222     13221     13224     13225
     13222     13221     13224     13226     13222     13221     13224     13227
     13223     13221     13224     13225     13223     13221     13224     13226
     13223     13221     13224     13227     13224     13227     13230     13231
     13224     13227     13230     13232     13224     13227     13230     13233
     13225     13224     13227     13228     13225     13224     13227     13229
     13225     13224     13227     13230     13226     13224     13227     13228
     13226     13224     13227     13229     13226     13224     13227     13230
     13228     13227     13230     13231     13228     13227     13230     13232
     13228     13227     13230     13233     13229     13227     13230     13231
     13229     13227     13230     13232     13229     13227     13230     13233
     13234     13237     13240     13241     13234     13237     13240     13242
     13234     13237     13240     13243     13235     13234     13237     13238
     13235     13234     13237     13239     13235     13234     13237     13240
     13236     13234     13237     13238     13236     13234     13237     13239
     13236     13234     13237     13240     13237     13240     13243     13244
     13237     13240     13243     13245     13237     13240     13243     13246
     13238     13237     13240     13241     13238     13237     13240     13242
     13238     13237     13240     13243     13239     13237     13240     13241
     13239     13237     13240     13242     13239     13237     13240     13243
     13240     13243     13246     13247     13240     13243     13246     13248
     13240     13243     13246     13249     13241     13240     13243     13244
     13241     13240     13243     13245     13241     13240     13243     13246
     13242     13240     13243     13244     13242     13240     13243     13245
     13242     13240     13243     13246     13243     13246     13249     13250
     13243     13246     13249     13251     13243     13246     13249     13252
     13244     13243     13246     13247     13244     13243     13246     13248
     13244     13243     13246     13249     13245     13243     13246     13247
     13245     13243     13246     13248     13245     13243     13246     13249
     13246     13249     13252     13253     13246     13249     13252     13254
     13246     13249     13252     13255     13247     13246     13249     13250
     13247     13246     13249     13251     13247     13246     13249     13252
     13248     13246     13249     13250     13248     13246     13249     13251
     13248     13246     13249     13252     13249     13252     13255     13256
     13249     13252     13255     13257     13249     13252     13255     13258
     13250     13249     13252     13253     13250     13249     13252     13254
     13250     13249     13252     13255     13251     13249     13252     13253
     13251     13249     13252     13254     13251     13249     13252     13255
     13252     13255     13258     13259     13252     13255     13258     13260
     13252     13255     13258     13261     13253     13252     13255     13256
     13253     13252     13255     13257     13253     13252     13255     13258
     13254     13252     13255     13256     13254     13252     13255     13257
     13254     13252     13255     13258     13255     13258     13261     13262
     13255     13258     13261     13263     13255     13258     13261     13264
     13256     13255     13258     13259     13256     13255     13258     13260
     13256     13255     13258     13261     13257     13255     13258     13259
     13257     13255     13258     13260     13257     13255     13258     13261
     13258     13261     13264     13265     13258     13261     13264     13266
     13258     13261     13264     13267     13259     13258     13261     13262
     13259     13258     13261     13263     13259     13258     13261     13264
     13260     13258     13261     13262     13260     13258     13261     13263
     13260     13258     13261     13264     13261     13264     13267     13268
     13261     13264     13267     13269     13261     13264     13267     13270
     13262     13261     13264     13265     13262     13261     13264     13266
     13262     13261     13264     13267     13263     13261     13264     13265
     13263     13261     13264     13266     13263     13261     13264     13267
     13264     13267     13270     13271     13264     13267     13270     13272
     13264     13267     13270     13273     13265     13264     13267     13268
     13265     13264     13267     13269     13265     13264     13267     13270
     13266     13264     13267     13268     13266     13264     13267     13269
     13266     13264     13267     13270     13267     13270     13273     13274
     13267     13270     13273     13275     13267     13270     13273     13276
     13268     13267     13270     13271     13268     13267     13270     13272
     13268     13267     13270     13273     13269     13267     13270     13271
     13269     13267     13270     13272     13269     13267     13270     13273
     13271     13270     13273     13274     13271     13270     13273     13275
     13271     13270     13273     13276     13272     13270     13273     13274
     13272     13270     13273     13275     13272     13270     13273     13276
     13277     13278     13293     13294     13277     13278     13293     13295
     13277     13278     13293     13299     13278     13277     13281     13282
     13278     13277     13281     13283     13278     13277     13281     13284
     13278     13277     13285     13286     13278     13277     13285     13287
     13278     13277     13285     13288     13278     13277     13289     13290
     13278     13277     13289     13291     13278     13277     13289     13292
     13278     13293     13299     13296     13279     13278     13277     13281
     13279     13278     13277     13285     13279     13278     13277     13289
     13279     13278     13293     13294     13279     13278     13293     13295
     13279     13278     13293     13299     13280     13278     13277     13281
     13280     13278     13277     13285     13280     13278     13277     13289
     13280     13278     13293     13294     13280     13278     13293     13295
     13280     13278     13293     13299     13281     13277     13278     13293
     13281     13277     13285     13286     13281     13277     13285     13287
     13281     13277     13285     13288     13281     13277     13289     13290
     13281     13277     13289     13291     13281     13277     13289     13292
     13282     13281     13277     13285     13282     13281     13277     13289
     13283     13281     13277     13285     13283     13281     13277     13289
     13284     13281     13277     13285     13284     13281     13277     13289
     13285     13277     13278     13293     13285     13277     13289     13290
     13285     13277     13289     13291     13285     13277     13289     13292
     13286     13285     13277     13289     13287     13285     13277     13289
     13288     13285     13277     13289     13289     13277     13278     13293
     13293     13299     13296     13297     13293     13299     13296     13298
     13293     13299     13296     13300     13294     13293     13299     13296
     13295     13293     13299     13296     13296     13300     13301     13302
     13296     13300     13301     13303     13296     13300     13301     13304
     13297     13296     13300     13301     13298     13296     13300     13301
     13299     13296     13300     13301     13300     13301     13304     13305
     13300     13301     13304     13306     13300     13301     13304     13312
     13301     13304     13306     13307     13301     13304     13312     13313
     13301     13304     13312     13314     13301     13304     13312     13315
     13302     13301     13304     13305     13302     13301     13304     13306
     13302     13301     13304     13312     13303     13301     13304     13305
     13303     13301     13304     13306     13303     13301     13304     13312
     13304     13306     13307     13308     13304     13306     13307     13309
     13304     13312     13315     13316     13305     13304     13306     13307
     13305     13304     13312     13313     13305     13304     13312     13314
     13305     13304     13312     13315     13306     13304     13312     13313
     13306     13304     13312     13314     13306     13304     13312     13315
     13306     13307     13309     13310     13306     13307     13309     13311
     13306     13307     13309     13321     13307     13306     13304     13312
     13307     13309     13321     13322     13307     13309     13321     13323
     13307     13309     13321     13324     13308     13307     13309     13310
     13308     13307     13309     13311     13308     13307     13309     13321
     13309     13321     13324     13325     13309     13321     13324     13326
     13309     13321     13324     13327     13310     13309     13321     13322
     13310     13309     13321     13323     13310     13309     13321     13324
     13311     13309     13321     13322     13311     13309     13321     13323
     13311     13309     13321     13324     13312     13315     13316     13317
     13312     13315     13316     13318     13313     13312     13315     13316
     13314     13312     13315     13316     13315     13316     13318     13319
     13315     13316     13318     13320     13315     13316     13318     13368
     13316     13318     13368     13369     13316     13318     13368     13370
     13316     13318     13368     13371     13317     13316     13318     13319
     13317     13316     13318     13320     13317     13316     13318     13368
     13318     13368     13371     13372     13318     13368     13371     13373
     13318     13368     13371     13374     13319     13318     13368     13369
     13319     13318     13368     13370     13319     13318     13368     13371
     13320     13318     13368     13369     13320     13318     13368     13370
     13320     13318     13368     13371     13321     13324     13327     13328
     13321     13324     13327     13329     13321     13324     13327     13330
     13322     13321     13324     13325     13322     13321     13324     13326
     13322     13321     13324     13327     13323     13321     13324     13325
     13323     13321     13324     13326     13323     13321     13324     13327
     13324     13327     13330     13331     13324     13327     13330     13332
     13324     13327     13330     13333     13325     13324     13327     13328
     13325     13324     13327     13329     13325     13324     13327     13330
     13326     13324     13327     13328     13326     13324     13327     13329
     13326     13324     13327     13330     13327     13330     13333     13334
     13327     13330     13333     13335     13327     13330     13333     13336
     13328     13327     13330     13331     13328     13327     13330     13332
     13328     13327     13330     13333     13329     13327     13330     13331
     13329     13327     13330     13332     13329     13327     13330     13333
     13330     13333     13336     13337     13330     13333     13336     13338
     13330     13333     13336     13339     13331     13330     13333     13334
     13331     13330     13333     13335     13331     13330     13333     13336
     13332     13330     13333     13334     13332     13330     13333     13335
     13332     13330     13333     13336     13333     13336     13339     13340
     13333     13336     13339     13341     13334     13333     13336     13337
     13334     13333     13336     13338     13334     13333     13336     13339
     13335     13333     13336     13337     13335     13333     13336     13338
     13335     13333     13336     13339     13336     13339     13341     13342
     13336     13339     13341     13343     13337     13336     13339     13340
     13337     13336     13339     13341     13338     13336     13339     13340
     13338     13336     13339     13341     13339     13341     13343     13344
     13339     13341     13343     13345     13339     13341     13343     13346
     13340     13339     13341     13342     13340     13339     13341     13343
     13341     13343     13346     13347     13341     13343     13346     13348
     13341     13343     13346     13349     13342     13341     13343     13344
     13342     13341     13343     13345     13342     13341     13343     13346
     13343     13346     13349     13350     13343     13346     13349     13351
     13343     13346     13349     13352     13344     13343     13346     13347
     13344     13343     13346     13348     13344     13343     13346     13349
     13345     13343     13346     13347     13345     13343     13346     13348
     13345     13343     13346     13349     13346     13349     13352     13353
     13346     13349     13352     13354     13346     13349     13352     13355
     13347     13346     13349     13350     13347     13346     13349     13351
     13347     13346     13349     13352     13348     13346     13349     13350
     13348     13346     13349     13351     13348     13346     13349     13352
     13349     13352     13355     13356     13349     13352     13355     13357
     13349     13352     13355     13358     13350     13349     13352     13353
     13350     13349     13352     13354     13350     13349     13352     13355
     13351     13349     13352     13353     13351     13349     13352     13354
     13351     13349     13352     13355     13352     13355     13358     13359
     13352     13355     13358     13360     13352     13355     13358     13361
     13353     13352     13355     13356     13353     13352     13355     13357
     13353     13352     13355     13358     13354     13352     13355     13356
     13354     13352     13355     13357     13354     13352     13355     13358
     13355     13358     13361     13362     13355     13358     13361     13363
     13355     13358     13361     13364     13356     13355     13358     13359
     13356     13355     13358     13360     13356     13355     13358     13361
     13357     13355     13358     13359     13357     13355     13358     13360
     13357     13355     13358     13361     13358     13361     13364     13365
     13358     13361     13364     13366     13358     13361     13364     13367
     13359     13358     13361     13362     13359     13358     13361     13363
     13359     13358     13361     13364     13360     13358     13361     13362
     13360     13358     13361     13363     13360     13358     13361     13364
     13362     13361     13364     13365     13362     13361     13364     13366
     13362     13361     13364     13367     13363     13361     13364     13365
     13363     13361     13364     13366     13363     13361     13364     13367
     13368     13371     13374     13375     13368     13371     13374     13376
     13368     13371     13374     13377     13369     13368     13371     13372
     13369     13368     13371     13373     13369     13368     13371     13374
     13370     13368     13371     13372     13370     13368     13371     13373
     13370     13368     13371     13374     13371     13374     13377     13378
     13371     13374     13377     13379     13371     13374     13377     13380
     13372     13371     13374     13375     13372     13371     13374     13376
     13372     13371     13374     13377     13373     13371     13374     13375
     13373     13371     13374     13376     13373     13371     13374     13377
     13374     13377     13380     13381     13374     13377     13380     13382
     13374     13377     13380     13383     13375     13374     13377     13378
     13375     13374     13377     13379     13375     13374     13377     13380
     13376     13374     13377     13378     13376     13374     13377     13379
     13376     13374     13377     13380     13377     13380     13383     13384
     13377     13380     13383     13385     13377     13380     13383     13386
     13378     13377     13380     13381     13378     13377     13380     13382
     13378     13377     13380     13383     13379     13377     13380     13381
     13379     13377     13380     13382     13379     13377     13380     13383
     13380     13383     13386     13387     13380     13383     13386     13388
     13380     13383     13386     13389     13381     13380     13383     13384
     13381     13380     13383     13385     13381     13380     13383     13386
     13382     13380     13383     13384     13382     13380     13383     13385
     13382     13380     13383     13386     13383     13386     13389     13390
     13383     13386     13389     13391     13383     13386     13389     13392
     13384     13383     13386     13387     13384     13383     13386     13388
     13384     13383     13386     13389     13385     13383     13386     13387
     13385     13383     13386     13388     13385     13383     13386     13389
     13386     13389     13392     13393     13386     13389     13392     13394
     13386     13389     13392     13395     13387     13386     13389     13390
     13387     13386     13389     13391     13387     13386     13389     13392
     13388     13386     13389     13390     13388     13386     13389     13391
     13388     13386     13389     13392     13389     13392     13395     13396
     13389     13392     13395     13397     13389     13392     13395     13398
     13390     13389     13392     13393     13390     13389     13392     13394
     13390     13389     13392     13395     13391     13389     13392     13393
     13391     13389     13392     13394     13391     13389     13392     13395
     13392     13395     13398     13399     13392     13395     13398     13400
     13392     13395     13398     13401     13393     13392     13395     13396
     13393     13392     13395     13397     13393     13392     13395     13398
     13394     13392     13395     13396     13394     13392     13395     13397
     13394     13392     13395     13398     13395     13398     13401     13402
     13395     13398     13401     13403     13395     13398     13401     13404
     13396     13395     13398     13399     13396     13395     13398     13400
     13396     13395     13398     13401     13397     13395     13398     13399
     13397     13395     13398     13400     13397     13395     13398     13401
     13398     13401     13404     13405     13398     13401     13404     13406
     13398     13401     13404     13407     13399     13398     13401     13402
     13399     13398     13401     13403     13399     13398     13401     13404
     13400     13398     13401     13402     13400     13398     13401     13403
     13400     13398     13401     13404     13401     13404     13407     13408
     13401     13404     13407     13409     13401     13404     13407     13410
     13402     13401     13404     13405     13402     13401     13404     13406
     13402     13401     13404     13407     13403     13401     13404     13405
     13403     13401     13404     13406     13403     13401     13404     13407
     13405     13404     13407     13408     13405     13404     13407     13409
     13405     13404     13407     13410     13406     13404     13407     13408
     13406     13404     13407     13409     13406     13404     13407     13410
     13411     13412     13427     13428     13411     13412     13427     13429
     13411     13412     13427     13433     13412     13411     13415     13416
     13412     13411     13415     13417     13412     13411     13415     13418
     13412     13411     13419     13420     13412     13411     13419     13421
     13412     13411     13419     13422     13412     13411     13423     13424
     13412     13411     13423     13425     13412     13411     13423     13426
     13412     13427     13433     13430     13413     13412     13411     13415
     13413     13412     13411     13419     13413     13412     13411     13423
     13413     13412     13427     13428     13413     13412     13427     13429
     13413     13412     13427     13433     13414     13412     13411     13415
     13414     13412     13411     13419     13414     13412     13411     13423
     13414     13412     13427     13428     13414     13412     13427     13429
     13414     13412     13427     13433     13415     13411     13412     13427
     13415     13411     13419     13420     13415     13411     13419     13421
     13415     13411     13419     13422     13415     13411     13423     13424
     13415     13411     13423     13425     13415     13411     13423     13426
     13416     13415     13411     13419     13416     13415     13411     13423
     13417     13415     13411     13419     13417     13415     13411     13423
     13418     13415     13411     13419     13418     13415     13411     13423
     13419     13411     13412     13427     13419     13411     13423     13424
     13419     13411     13423     13425     13419     13411     13423     13426
     13420     13419     13411     13423     13421     13419     13411     13423
     13422     13419     13411     13423     13423     13411     13412     13427
     13427     13433     13430     13431     13427     13433     13430     13432
     13427     13433     13430     13434     13428     13427     13433     13430
     13429     13427     13433     13430     13430     13434     13435     13436
     13430     13434     13435     13437     13430     13434     13435     13438
     13431     13430     13434     13435     13432     13430     13434     13435
     13433     13430     13434     13435     13434     13435     13438     13439
     13434     13435     13438     13440     13434     13435     13438     13446
     13435     13438     13440     13441     13435     13438     13446     13447
     13435     13438     13446     13448     13435     13438     13446     13449
     13436     13435     13438     13439     13436     13435     13438     13440
     13436     13435     13438     13446     13437     13435     13438     13439
     13437     13435     13438     13440     13437     13435     13438     13446
     13438     13440     13441     13442     13438     13440     13441     13443
     13438     13446     13449     13450     13439     13438     13440     13441
     13439     13438     13446     13447     13439     13438     13446     13448
     13439     13438     13446     13449     13440     13438     13446     13447
     13440     13438     13446     13448     13440     13438     13446     13449
     13440     13441     13443     13444     13440     13441     13443     13445
     13440     13441     13443     13455     13441     13440     13438     13446
     13441     13443     13455     13456     13441     13443     13455     13457
     13441     13443     13455     13458     13442     13441     13443     13444
     13442     13441     13443     13445     13442     13441     13443     13455
     13443     13455     13458     13459     13443     13455     13458     13460
     13443     13455     13458     13461     13444     13443     13455     13456
     13444     13443     13455     13457     13444     13443     13455     13458
     13445     13443     13455     13456     13445     13443     13455     13457
     13445     13443     13455     13458     13446     13449     13450     13451
     13446     13449     13450     13452     13447     13446     13449     13450
     13448     13446     13449     13450     13449     13450     13452     13453
     13449     13450     13452     13454     13449     13450     13452     13502
     13450     13452     13502     13503     13450     13452     13502     13504
     13450     13452     13502     13505     13451     13450     13452     13453
     13451     13450     13452     13454     13451     13450     13452     13502
     13452     13502     13505     13506     13452     13502     13505     13507
     13452     13502     13505     13508     13453     13452     13502     13503
     13453     13452     13502     13504     13453     13452     13502     13505
     13454     13452     13502     13503     13454     13452     13502     13504
     13454     13452     13502     13505     13455     13458     13461     13462
     13455     13458     13461     13463     13455     13458     13461     13464
     13456     13455     13458     13459     13456     13455     13458     13460
     13456     13455     13458     13461     13457     13455     13458     13459
     13457     13455     13458     13460     13457     13455     13458     13461
     13458     13461     13464     13465     13458     13461     13464     13466
     13458     13461     13464     13467     13459     13458     13461     13462
     13459     13458     13461     13463     13459     13458     13461     13464
     13460     13458     13461     13462     13460     13458     13461     13463
     13460     13458     13461     13464     13461     13464     13467     13468
     13461     13464     13467     13469     13461     13464     13467     13470
     13462     13461     13464     13465     13462     13461     13464     13466
     13462     13461     13464     13467     13463     13461     13464     13465
     13463     13461     13464     13466     13463     13461     13464     13467
     13464     13467     13470     13471     13464     13467     13470     13472
     13464     13467     13470     13473     13465     13464     13467     13468
     13465     13464     13467     13469     13465     13464     13467     13470
     13466     13464     13467     13468     13466     13464     13467     13469
     13466     13464     13467     13470     13467     13470     13473     13474
     13467     13470     13473     13475     13468     13467     13470     13471
     13468     13467     13470     13472     13468     13467     13470     13473
     13469     13467     13470     13471     13469     13467     13470     13472
     13469     13467     13470     13473     13470     13473     13475     13476
     13470     13473     13475     13477     13471     13470     13473     13474
     13471     13470     13473     13475     13472     13470     13473     13474
     13472     13470     13473     13475     13473     13475     13477     13478
     13473     13475     13477     13479     13473     13475     13477     13480
     13474     13473     13475     13476     13474     13473     13475     13477
     13475     13477     13480     13481     13475     13477     13480     13482
     13475     13477     13480     13483     13476     13475     13477     13478
     13476     13475     13477     13479     13476     13475     13477     13480
     13477     13480     13483     13484     13477     13480     13483     13485
     13477     13480     13483     13486     13478     13477     13480     13481
     13478     13477     13480     13482     13478     13477     13480     13483
     13479     13477     13480     13481     13479     13477     13480     13482
     13479     13477     13480     13483     13480     13483     13486     13487
     13480     13483     13486     13488     13480     13483     13486     13489
     13481     13480     13483     13484     13481     13480     13483     13485
     13481     13480     13483     13486     13482     13480     13483     13484
     13482     13480     13483     13485     13482     13480     13483     13486
     13483     13486     13489     13490     13483     13486     13489     13491
     13483     13486     13489     13492     13484     13483     13486     13487
     13484     13483     13486     13488     13484     13483     13486     13489
     13485     13483     13486     13487     13485     13483     13486     13488
     13485     13483     13486     13489     13486     13489     13492     13493
     13486     13489     13492     13494     13486     13489     13492     13495
     13487     13486     13489     13490     13487     13486     13489     13491
     13487     13486     13489     13492     13488     13486     13489     13490
     13488     13486     13489     13491     13488     13486     13489     13492
     13489     13492     13495     13496     13489     13492     13495     13497
     13489     13492     13495     13498     13490     13489     13492     13493
     13490     13489     13492     13494     13490     13489     13492     13495
     13491     13489     13492     13493     13491     13489     13492     13494
     13491     13489     13492     13495     13492     13495     13498     13499
     13492     13495     13498     13500     13492     13495     13498     13501
     13493     13492     13495     13496     13493     13492     13495     13497
     13493     13492     13495     13498     13494     13492     13495     13496
     13494     13492     13495     13497     13494     13492     13495     13498
     13496     13495     13498     13499     13496     13495     13498     13500
     13496     13495     13498     13501     13497     13495     13498     13499
     13497     13495     13498     13500     13497     13495     13498     13501
     13502     13505     13508     13509     13502     13505     13508     13510
     13502     13505     13508     13511     13503     13502     13505     13506
     13503     13502     13505     13507     13503     13502     13505     13508
     13504     13502     13505     13506     13504     13502     13505     13507
     13504     13502     13505     13508     13505     13508     13511     13512
     13505     13508     13511     13513     13505     13508     13511     13514
     13506     13505     13508     13509     13506     13505     13508     13510
     13506     13505     13508     13511     13507     13505     13508     13509
     13507     13505     13508     13510     13507     13505     13508     13511
     13508     13511     13514     13515     13508     13511     13514     13516
     13508     13511     13514     13517     13509     13508     13511     13512
     13509     13508     13511     13513     13509     13508     13511     13514
     13510     13508     13511     13512     13510     13508     13511     13513
     13510     13508     13511     13514     13511     13514     13517     13518
     13511     13514     13517     13519     13511     13514     13517     13520
     13512     13511     13514     13515     13512     13511     13514     13516
     13512     13511     13514     13517     13513     13511     13514     13515
     13513     13511     13514     13516     13513     13511     13514     13517
     13514     13517     13520     13521     13514     13517     13520     13522
     13514     13517     13520     13523     13515     13514     13517     13518
     13515     13514     13517     13519     13515     13514     13517     13520
     13516     13514     13517     13518     13516     13514     13517     13519
     13516     13514     13517     13520     13517     13520     13523     13524
     13517     13520     13523     13525     13517     13520     13523     13526
     13518     13517     13520     13521     13518     13517     13520     13522
     13518     13517     13520     13523     13519     13517     13520     13521
     13519     13517     13520     13522     13519     13517     13520     13523
     13520     13523     13526     13527     13520     13523     13526     13528
     13520     13523     13526     13529     13521     13520     13523     13524
     13521     13520     13523     13525     13521     13520     13523     13526
     13522     13520     13523     13524     13522     13520     13523     13525
     13522     13520     13523     13526     13523     13526     13529     13530
     13523     13526     13529     13531     13523     13526     13529     13532
     13524     13523     13526     13527     13524     13523     13526     13528
     13524     13523     13526     13529     13525     13523     13526     13527
     13525     13523     13526     13528     13525     13523     13526     13529
     13526     13529     13532     13533     13526     13529     13532     13534
     13526     13529     13532     13535     13527     13526     13529     13530
     13527     13526     13529     13531     13527     13526     13529     13532
     13528     13526     13529     13530     13528     13526     13529     13531
     13528     13526     13529     13532     13529     13532     13535     13536
     13529     13532     13535     13537     13529     13532     13535     13538
     13530     13529     13532     13533     13530     13529     13532     13534
     13530     13529     13532     13535     13531     13529     13532     13533
     13531     13529     13532     13534     13531     13529     13532     13535
     13532     13535     13538     13539     13532     13535     13538     13540
     13532     13535     13538     13541     13533     13532     13535     13536
     13533     13532     13535     13537     13533     13532     13535     13538
     13534     13532     13535     13536     13534     13532     13535     13537
     13534     13532     13535     13538     13535     13538     13541     13542
     13535     13538     13541     13543     13535     13538     13541     13544
     13536     13535     13538     13539     13536     13535     13538     13540
     13536     13535     13538     13541     13537     13535     13538     13539
     13537     13535     13538     13540     13537     13535     13538     13541
     13539     13538     13541     13542     13539     13538     13541     13543
     13539     13538     13541     13544     13540     13538     13541     13542
     13540     13538     13541     13543     13540     13538     13541     13544
     13545     13549     13551     13552     13545     13549     13551     13553
     13545     13549     13554     13555     13545     13549     13554     13556
     13545     13549     13554     13560     13546     13545     13549     13550
     13546     13545     13549     13551     13546     13545     13549     13554
     13547     13545     13549     13550     13547     13545     13549     13551
     13547     13545     13549     13554     13548     13545     13549     13550
     13548     13545     13549     13551     13548     13545     13549     13554
     13549     13554     13560     13557     13550     13549     13551     13552
     13550     13549     13551     13553     13550     13549     13554     13555
     13550     13549     13554     13556     13550     13549     13554     13560
     13551     13549     13554     13555     13551     13549     13554     13556
     13551     13549     13554     13560     13552     13551     13549     13554
     13553     13551     13549     13554     13554     13560     13557     13558
     13554     13560     13557     13559     13554     13560     13557     13561
     13555     13554     13560     13557     13556     13554     13560     13557
     13557     13561     13562     13563     13557     13561     13562     13564
     13557     13561     13562     13565     13558     13557     13561     13562
     13559     13557     13561     13562     13560     13557     13561     13562
     13561     13562     13565     13566     13561     13562     13565     13567
     13561     13562     13565     13573     13562     13565     13567     13568
     13562     13565     13573     13574     13562     13565     13573     13575
     13562     13565     13573     13576     13563     13562     13565     13566
     13563     13562     13565     13567     13563     13562     13565     13573
     13564     13562     13565     13566     13564     13562     13565     13567
     13564     13562     13565     13573     13565     13567     13568     13569
     13565     13567     13568     13570     13565     13573     13576     13577
     13566     13565     13567     13568     13566     13565     13573     13574
     13566     13565     13573     13575     13566     13565     13573     13576
     13567     13565     13573     13574     13567     13565     13573     13575
     13567     13565     13573     13576     13567     13568     13570     13571
     13567     13568     13570     13572     13567     13568     13570     13582
     13568     13567     13565     13573     13568     13570     13582     13583
     13568     13570     13582     13584     13568     13570     13582     13585
     13569     13568     13570     13571     13569     13568     13570     13572
     13569     13568     13570     13582     13570     13582     13585     13586
     13570     13582     13585     13587     13570     13582     13585     13588
     13571     13570     13582     13583     13571     13570     13582     13584
     13571     13570     13582     13585     13572     13570     13582     13583
     13572     13570     13582     13584     13572     13570     13582     13585
     13573     13576     13577     13578     13573     13576     13577     13579
     13574     13573     13576     13577     13575     13573     13576     13577
     13576     13577     13579     13580     13576     13577     13579     13581
     13576     13577     13579     13629     13577     13579     13629     13630
     13577     13579     13629     13631     13577     13579     13629     13632
     13578     13577     13579     13580     13578     13577     13579     13581
     13578     13577     13579     13629     13579     13629     13632     13633
     13579     13629     13632     13634     13579     13629     13632     13635
     13580     13579     13629     13630     13580     13579     13629     13631
     13580     13579     13629     13632     13581     13579     13629     13630
     13581     13579     13629     13631     13581     13579     13629     13632
     13582     13585     13588     13589     13582     13585     13588     13590
     13582     13585     13588     13591     13583     13582     13585     13586
     13583     13582     13585     13587     13583     13582     13585     13588
     13584     13582     13585     13586     13584     13582     13585     13587
     13584     13582     13585     13588     13585     13588     13591     13592
     13585     13588     13591     13593     13585     13588     13591     13594
     13586     13585     13588     13589     13586     13585     13588     13590
     13586     13585     13588     13591     13587     13585     13588     13589
     13587     13585     13588     13590     13587     13585     13588     13591
     13588     13591     13594     13595     13588     13591     13594     13596
     13588     13591     13594     13597     13589     13588     13591     13592
     13589     13588     13591     13593     13589     13588     13591     13594
     13590     13588     13591     13592     13590     13588     13591     13593
     13590     13588     13591     13594     13591     13594     13597     13598
     13591     13594     13597     13599     13591     13594     13597     13600
     13592     13591     13594     13595     13592     13591     13594     13596
     13592     13591     13594     13597     13593     13591     13594     13595
     13593     13591     13594     13596     13593     13591     13594     13597
     13594     13597     13600     13601     13594     13597     13600     13602
     13595     13594     13597     13598     13595     13594     13597     13599
     13595     13594     13597     13600     13596     13594     13597     13598
     13596     13594     13597     13599     13596     13594     13597     13600
     13597     13600     13602     13603     13597     13600     13602     13604
     13598     13597     13600     13601     13598     13597     13600     13602
     13599     13597     13600     13601     13599     13597     13600     13602
     13600     13602     13604     13605     13600     13602     13604     13606
     13600     13602     13604     13607     13601     13600     13602     13603
     13601     13600     13602     13604     13602     13604     13607     13608
     13602     13604     13607     13609     13602     13604     13607     13610
     13603     13602     13604     13605     13603     13602     13604     13606
     13603     13602     13604     13607     13604     13607     13610     13611
     13604     13607     13610     13612     13604     13607     13610     13613
     13605     13604     13607     13608     13605     13604     13607     13609
     13605     13604     13607     13610     13606     13604     13607     13608
     13606     13604     13607     13609     13606     13604     13607     13610
     13607     13610     13613     13614     13607     13610     13613     13615
     13607     13610     13613     13616     13608     13607     13610     13611
     13608     13607     13610     13612     13608     13607     13610     13613
     13609     13607     13610     13611     13609     13607     13610     13612
     13609     13607     13610     13613     13610     13613     13616     13617
     13610     13613     13616     13618     13610     13613     13616     13619
     13611     13610     13613     13614     13611     13610     13613     13615
     13611     13610     13613     13616     13612     13610     13613     13614
     13612     13610     13613     13615     13612     13610     13613     13616
     13613     13616     13619     13620     13613     13616     13619     13621
     13613     13616     13619     13622     13614     13613     13616     13617
     13614     13613     13616     13618     13614     13613     13616     13619
     13615     13613     13616     13617     13615     13613     13616     13618
     13615     13613     13616     13619     13616     13619     13622     13623
     13616     13619     13622     13624     13616     13619     13622     13625
     13617     13616     13619     13620     13617     13616     13619     13621
     13617     13616     13619     13622     13618     13616     13619     13620
     13618     13616     13619     13621     13618     13616     13619     13622
     13619     13622     13625     13626     13619     13622     13625     13627
     13619     13622     13625     13628     13620     13619     13622     13623
     13620     13619     13622     13624     13620     13619     13622     13625
     13621     13619     13622     13623     13621     13619     13622     13624
     13621     13619     13622     13625     13623     13622     13625     13626
     13623     13622     13625     13627     13623     13622     13625     13628
     13624     13622     13625     13626     13624     13622     13625     13627
     13624     13622     13625     13628     13629     13632     13635     13636
     13629     13632     13635     13637     13629     13632     13635     13638
     13630     13629     13632     13633     13630     13629     13632     13634
     13630     13629     13632     13635     13631     13629     13632     13633
     13631     13629     13632     13634     13631     13629     13632     13635
     13632     13635     13638     13639     13632     13635     13638     13640
     13632     13635     13638     13641     13633     13632     13635     13636
     13633     13632     13635     13637     13633     13632     13635     13638
     13634     13632     13635     13636     13634     13632     13635     13637
     13634     13632     13635     13638     13635     13638     13641     13642
     13635     13638     13641     13643     13635     13638     13641     13644
     13636     13635     13638     13639     13636     13635     13638     13640
     13636     13635     13638     13641     13637     13635     13638     13639
     13637     13635     13638     13640     13637     13635     13638     13641
     13638     13641     13644     13645     13638     13641     13644     13646
     13638     13641     13644     13647     13639     13638     13641     13642
     13639     13638     13641     13643     13639     13638     13641     13644
     13640     13638     13641     13642     13640     13638     13641     13643
     13640     13638     13641     13644     13641     13644     13647     13648
     13641     13644     13647     13649     13641     13644     13647     13650
     13642     13641     13644     13645     13642     13641     13644     13646
     13642     13641     13644     13647     13643     13641     13644     13645
     13643     13641     13644     13646     13643     13641     13644     13647
     13644     13647     13650     13651     13644     13647     13650     13652
     13644     13647     13650     13653     13645     13644     13647     13648
     13645     13644     13647     13649     13645     13644     13647     13650
     13646     13644     13647     13648     13646     13644     13647     13649
     13646     13644     13647     13650     13647     13650     13653     13654
     13647     13650     13653     13655     13647     13650     13653     13656
     13648     13647     13650     13651     13648     13647     13650     13652
     13648     13647     13650     13653     13649     13647     13650     13651
     13649     13647     13650     13652     13649     13647     13650     13653
     13650     13653     13656     13657     13650     13653     13656     13658
     13650     13653     13656     13659     13651     13650     13653     13654
     13651     13650     13653     13655     13651     13650     13653     13656
     13652     13650     13653     13654     13652     13650     13653     13655
     13652     13650     13653     13656     13653     13656     13659     13660
     13653     13656     13659     13661     13653     13656     13659     13662
     13654     13653     13656     13657     13654     13653     13656     13658
     13654     13653     13656     13659     13655     13653     13656     13657
     13655     13653     13656     13658     13655     13653     13656     13659
     13656     13659     13662     13663     13656     13659     13662     13664
     13656     13659     13662     13665     13657     13656     13659     13660
     13657     13656     13659     13661     13657     13656     13659     13662
     13658     13656     13659     13660     13658     13656     13659     13661
     13658     13656     13659     13662     13659     13662     13665     13666
     13659     13662     13665     13667     13659     13662     13665     13668
     13660     13659     13662     13663     13660     13659     13662     13664
     13660     13659     13662     13665     13661     13659     13662     13663
     13661     13659     13662     13664     13661     13659     13662     13665
     13662     13665     13668     13669     13662     13665     13668     13670
     13662     13665     13668     13671     13663     13662     13665     13666
     13663     13662     13665     13667     13663     13662     13665     13668
     13664     13662     13665     13666     13664     13662     13665     13667
     13664     13662     13665     13668     13666     13665     13668     13669
     13666     13665     13668     13670     13666     13665     13668     13671
     13667     13665     13668     13669     13667     13665     13668     13670
     13667     13665     13668     13671     13672     13673     13688     13689
     13672     13673     13688     13690     13672     13673     13688     13694
     13673     13672     13676     13677     13673     13672     13676     13678
     13673     13672     13676     13679     13673     13672     13680     13681
     13673     13672     13680     13682     13673     13672     13680     13683
     13673     13672     13684     13685     13673     13672     13684     13686
     13673     13672     13684     13687     13673     13688     13694     13691
     13674     13673     13672     13676     13674     13673     13672     13680
     13674     13673     13672     13684     13674     13673     13688     13689
     13674     13673     13688     13690     13674     13673     13688     13694
     13675     13673     13672     13676     13675     13673     13672     13680
     13675     13673     13672     13684     13675     13673     13688     13689
     13675     13673     13688     13690     13675     13673     13688     13694
     13676     13672     13673     13688     13676     13672     13680     13681
     13676     13672     13680     13682     13676     13672     13680     13683
     13676     13672     13684     13685     13676     13672     13684     13686
     13676     13672     13684     13687     13677     13676     13672     13680
     13677     13676     13672     13684     13678     13676     13672     13680
     13678     13676     13672     13684     13679     13676     13672     13680
     13679     13676     13672     13684     13680     13672     13673     13688
     13680     13672     13684     13685     13680     13672     13684     13686
     13680     13672     13684     13687     13681     13680     13672     13684
     13682     13680     13672     13684     13683     13680     13672     13684
     13684     13672     13673     13688     13688     13694     13691     13692
     13688     13694     13691     13693     13688     13694     13691     13695
     13689     13688     13694     13691     13690     13688     13694     13691
     13691     13695     13696     13697     13691     13695     13696     13698
     13691     13695     13696     13699     13692     13691     13695     13696
     13693     13691     13695     13696     13694     13691     13695     13696
     13695     13696     13699     13700     13695     13696     13699     13701
     13695     13696     13699     13707     13696     13699     13701     13702
     13696     13699     13707     13708     13696     13699     13707     13709
     13696     13699     13707     13710     13697     13696     13699     13700
     13697     13696     13699     13701     13697     13696     13699     13707
     13698     13696     13699     13700     13698     13696     13699     13701
     13698     13696     13699     13707     13699     13701     13702     13703
     13699     13701     13702     13704     13699     13707     13710     13711
     13700     13699     13701     13702     13700     13699     13707     13708
     13700     13699     13707     13709     13700     13699     13707     13710
     13701     13699     13707     13708     13701     13699     13707     13709
     13701     13699     13707     13710     13701     13702     13704     13705
     13701     13702     13704     13706     13701     13702     13704     13716
     13702     13701     13699     13707     13702     13704     13716     13717
     13702     13704     13716     13718     13702     13704     13716     13719
     13703     13702     13704     13705     13703     13702     13704     13706
     13703     13702     13704     13716     13704     13716     13719     13720
     13704     13716     13719     13721     13704     13716     13719     13722
     13705     13704     13716     13717     13705     13704     13716     13718
     13705     13704     13716     13719     13706     13704     13716     13717
     13706     13704     13716     13718     13706     13704     13716     13719
     13707     13710     13711     13712     13707     13710     13711     13713
     13708     13707     13710     13711     13709     13707     13710     13711
     13710     13711     13713     13714     13710     13711     13713     13715
     13710     13711     13713     13763     13711     13713     13763     13764
     13711     13713     13763     13765     13711     13713     13763     13766
     13712     13711     13713     13714     13712     13711     13713     13715
     13712     13711     13713     13763     13713     13763     13766     13767
     13713     13763     13766     13768     13713     13763     13766     13769
     13714     13713     13763     13764     13714     13713     13763     13765
     13714     13713     13763     13766     13715     13713     13763     13764
     13715     13713     13763     13765     13715     13713     13763     13766
     13716     13719     13722     13723     13716     13719     13722     13724
     13716     13719     13722     13725     13717     13716     13719     13720
     13717     13716     13719     13721     13717     13716     13719     13722
     13718     13716     13719     13720     13718     13716     13719     13721
     13718     13716     13719     13722     13719     13722     13725     13726
     13719     13722     13725     13727     13719     13722     13725     13728
     13720     13719     13722     13723     13720     13719     13722     13724
     13720     13719     13722     13725     13721     13719     13722     13723
     13721     13719     13722     13724     13721     13719     13722     13725
     13722     13725     13728     13729     13722     13725     13728     13730
     13722     13725     13728     13731     13723     13722     13725     13726
     13723     13722     13725     13727     13723     13722     13725     13728
     13724     13722     13725     13726     13724     13722     13725     13727
     13724     13722     13725     13728     13725     13728     13731     13732
     13725     13728     13731     13733     13725     13728     13731     13734
     13726     13725     13728     13729     13726     13725     13728     13730
     13726     13725     13728     13731     13727     13725     13728     13729
     13727     13725     13728     13730     13727     13725     13728     13731
     13728     13731     13734     13735     13728     13731     13734     13736
     13729     13728     13731     13732     13729     13728     13731     13733
     13729     13728     13731     13734     13730     13728     13731     13732
     13730     13728     13731     13733     13730     13728     13731     13734
     13731     13734     13736     13737     13731     13734     13736     13738
     13732     13731     13734     13735     13732     13731     13734     13736
     13733     13731     13734     13735     13733     13731     13734     13736
     13734     13736     13738     13739     13734     13736     13738     13740
     13734     13736     13738     13741     13735     13734     13736     13737
     13735     13734     13736     13738     13736     13738     13741     13742
     13736     13738     13741     13743     13736     13738     13741     13744
     13737     13736     13738     13739     13737     13736     13738     13740
     13737     13736     13738     13741     13738     13741     13744     13745
     13738     13741     13744     13746     13738     13741     13744     13747
     13739     13738     13741     13742     13739     13738     13741     13743
     13739     13738     13741     13744     13740     13738     13741     13742
     13740     13738     13741     13743     13740     13738     13741     13744
     13741     13744     13747     13748     13741     13744     13747     13749
     13741     13744     13747     13750     13742     13741     13744     13745
     13742     13741     13744     13746     13742     13741     13744     13747
     13743     13741     13744     13745     13743     13741     13744     13746
     13743     13741     13744     13747     13744     13747     13750     13751
     13744     13747     13750     13752     13744     13747     13750     13753
     13745     13744     13747     13748     13745     13744     13747     13749
     13745     13744     13747     13750     13746     13744     13747     13748
     13746     13744     13747     13749     13746     13744     13747     13750
     13747     13750     13753     13754     13747     13750     13753     13755
     13747     13750     13753     13756     13748     13747     13750     13751
     13748     13747     13750     13752     13748     13747     13750     13753
     13749     13747     13750     13751     13749     13747     13750     13752
     13749     13747     13750     13753     13750     13753     13756     13757
     13750     13753     13756     13758     13750     13753     13756     13759
     13751     13750     13753     13754     13751     13750     13753     13755
     13751     13750     13753     13756     13752     13750     13753     13754
     13752     13750     13753     13755     13752     13750     13753     13756
     13753     13756     13759     13760     13753     13756     13759     13761
     13753     13756     13759     13762     13754     13753     13756     13757
     13754     13753     13756     13758     13754     13753     13756     13759
     13755     13753     13756     13757     13755     13753     13756     13758
     13755     13753     13756     13759     13757     13756     13759     13760
     13757     13756     13759     13761     13757     13756     13759     13762
     13758     13756     13759     13760     13758     13756     13759     13761
     13758     13756     13759     13762     13763     13766     13769     13770
     13763     13766     13769     13771     13763     13766     13769     13772
     13764     13763     13766     13767     13764     13763     13766     13768
     13764     13763     13766     13769     13765     13763     13766     13767
     13765     13763     13766     13768     13765     13763     13766     13769
     13766     13769     13772     13773     13766     13769     13772     13774
     13766     13769     13772     13775     13767     13766     13769     13770
     13767     13766     13769     13771     13767     13766     13769     13772
     13768     13766     13769     13770     13768     13766     13769     13771
     13768     13766     13769     13772     13769     13772     13775     13776
     13769     13772     13775     13777     13769     13772     13775     13778
     13770     13769     13772     13773     13770     13769     13772     13774
     13770     13769     13772     13775     13771     13769     13772     13773
     13771     13769     13772     13774     13771     13769     13772     13775
     13772     13775     13778     13779     13772     13775     13778     13780
     13772     13775     13778     13781     13773     13772     13775     13776
     13773     13772     13775     13777     13773     13772     13775     13778
     13774     13772     13775     13776     13774     13772     13775     13777
     13774     13772     13775     13778     13775     13778     13781     13782
     13775     13778     13781     13783     13775     13778     13781     13784
     13776     13775     13778     13779     13776     13775     13778     13780
     13776     13775     13778     13781     13777     13775     13778     13779
     13777     13775     13778     13780     13777     13775     13778     13781
     13778     13781     13784     13785     13778     13781     13784     13786
     13778     13781     13784     13787     13779     13778     13781     13782
     13779     13778     13781     13783     13779     13778     13781     13784
     13780     13778     13781     13782     13780     13778     13781     13783
     13780     13778     13781     13784     13781     13784     13787     13788
     13781     13784     13787     13789     13781     13784     13787     13790
     13782     13781     13784     13785     13782     13781     13784     13786
     13782     13781     13784     13787     13783     13781     13784     13785
     13783     13781     13784     13786     13783     13781     13784     13787
     13784     13787     13790     13791     13784     13787     13790     13792
     13784     13787     13790     13793     13785     13784     13787     13788
     13785     13784     13787     13789     13785     13784     13787     13790
     13786     13784     13787     13788     13786     13784     13787     13789
     13786     13784     13787     13790     13787     13790     13793     13794
     13787     13790     13793     13795     13787     13790     13793     13796
     13788     13787     13790     13791     13788     13787     13790     13792
     13788     13787     13790     13793     13789     13787     13790     13791
     13789     13787     13790     13792     13789     13787     13790     13793
     13790     13793     13796     13797     13790     13793     13796     13798
     13790     13793     13796     13799     13791     13790     13793     13794
     13791     13790     13793     13795     13791     13790     13793     13796
     13792     13790     13793     13794     13792     13790     13793     13795
     13792     13790     13793     13796     13793     13796     13799     13800
     13793     13796     13799     13801     13793     13796     13799     13802
     13794     13793     13796     13797     13794     13793     13796     13798
     13794     13793     13796     13799     13795     13793     13796     13797
     13795     13793     13796     13798     13795     13793     13796     13799
     13796     13799     13802     13803     13796     13799     13802     13804
     13796     13799     13802     13805     13797     13796     13799     13800
     13797     13796     13799     13801     13797     13796     13799     13802
     13798     13796     13799     13800     13798     13796     13799     13801
     13798     13796     13799     13802     13800     13799     13802     13803
     13800     13799     13802     13804     13800     13799     13802     13805
     13801     13799     13802     13803     13801     13799     13802     13804
     13801     13799     13802     13805     13806     13810     13812     13813
     13806     13810     13812     13814     13806     13810     13815     13816
     13806     13810     13815     13817     13806     13810     13815     13821
     13807     13806     13810     13811     13807     13806     13810     13812
     13807     13806     13810     13815     13808     13806     13810     13811
     13808     13806     13810     13812     13808     13806     13810     13815
     13809     13806     13810     13811     13809     13806     13810     13812
     13809     13806     13810     13815     13810     13815     13821     13818
     13811     13810     13812     13813     13811     13810     13812     13814
     13811     13810     13815     13816     13811     13810     13815     13817
     13811     13810     13815     13821     13812     13810     13815     13816
     13812     13810     13815     13817     13812     13810     13815     13821
     13813     13812     13810     13815     13814     13812     13810     13815
     13815     13821     13818     13819     13815     13821     13818     13820
     13815     13821     13818     13822     13816     13815     13821     13818
     13817     13815     13821     13818     13818     13822     13823     13824
     13818     13822     13823     13825     13818     13822     13823     13826
     13819     13818     13822     13823     13820     13818     13822     13823
     13821     13818     13822     13823     13822     13823     13826     13827
     13822     13823     13826     13828     13822     13823     13826     13834
     13823     13826     13828     13829     13823     13826     13834     13835
     13823     13826     13834     13836     13823     13826     13834     13837
     13824     13823     13826     13827     13824     13823     13826     13828
     13824     13823     13826     13834     13825     13823     13826     13827
     13825     13823     13826     13828     13825     13823     13826     13834
     13826     13828     13829     13830     13826     13828     13829     13831
     13826     13834     13837     13838     13827     13826     13828     13829
     13827     13826     13834     13835     13827     13826     13834     13836
     13827     13826     13834     13837     13828     13826     13834     13835
     13828     13826     13834     13836     13828     13826     13834     13837
     13828     13829     13831     13832     13828     13829     13831     13833
     13828     13829     13831     13843     13829     13828     13826     13834
     13829     13831     13843     13844     13829     13831     13843     13845
     13829     13831     13843     13846     13830     13829     13831     13832
     13830     13829     13831     13833     13830     13829     13831     13843
     13831     13843     13846     13847     13831     13843     13846     13848
     13831     13843     13846     13849     13832     13831     13843     13844
     13832     13831     13843     13845     13832     13831     13843     13846
     13833     13831     13843     13844     13833     13831     13843     13845
     13833     13831     13843     13846     13834     13837     13838     13839
     13834     13837     13838     13840     13835     13834     13837     13838
     13836     13834     13837     13838     13837     13838     13840     13841
     13837     13838     13840     13842     13837     13838     13840     13890
     13838     13840     13890     13891     13838     13840     13890     13892
     13838     13840     13890     13893     13839     13838     13840     13841
     13839     13838     13840     13842     13839     13838     13840     13890
     13840     13890     13893     13894     13840     13890     13893     13895
     13840     13890     13893     13896     13841     13840     13890     13891
     13841     13840     13890     13892     13841     13840     13890     13893
     13842     13840     13890     13891     13842     13840     13890     13892
     13842     13840     13890     13893     13843     13846     13849     13850
     13843     13846     13849     13851     13843     13846     13849     13852
     13844     13843     13846     13847     13844     13843     13846     13848
     13844     13843     13846     13849     13845     13843     13846     13847
     13845     13843     13846     13848     13845     13843     13846     13849
     13846     13849     13852     13853     13846     13849     13852     13854
     13846     13849     13852     13855     13847     13846     13849     13850
     13847     13846     13849     13851     13847     13846     13849     13852
     13848     13846     13849     13850     13848     13846     13849     13851
     13848     13846     13849     13852     13849     13852     13855     13856
     13849     13852     13855     13857     13849     13852     13855     13858
     13850     13849     13852     13853     13850     13849     13852     13854
     13850     13849     13852     13855     13851     13849     13852     13853
     13851     13849     13852     13854     13851     13849     13852     13855
     13852     13855     13858     13859     13852     13855     13858     13860
     13852     13855     13858     13861     13853     13852     13855     13856
     13853     13852     13855     13857     13853     13852     13855     13858
     13854     13852     13855     13856     13854     13852     13855     13857
     13854     13852     13855     13858     13855     13858     13861     13862
     13855     13858     13861     13863     13856     13855     13858     13859
     13856     13855     13858     13860     13856     13855     13858     13861
     13857     13855     13858     13859     13857     13855     13858     13860
     13857     13855     13858     13861     13858     13861     13863     13864
     13858     13861     13863     13865     13859     13858     13861     13862
     13859     13858     13861     13863     13860     13858     13861     13862
     13860     13858     13861     13863     13861     13863     13865     13866
     13861     13863     13865     13867     13861     13863     13865     13868
     13862     13861     13863     13864     13862     13861     13863     13865
     13863     13865     13868     13869     13863     13865     13868     13870
     13863     13865     13868     13871     13864     13863     13865     13866
     13864     13863     13865     13867     13864     13863     13865     13868
     13865     13868     13871     13872     13865     13868     13871     13873
     13865     13868     13871     13874     13866     13865     13868     13869
     13866     13865     13868     13870     13866     13865     13868     13871
     13867     13865     13868     13869     13867     13865     13868     13870
     13867     13865     13868     13871     13868     13871     13874     13875
     13868     13871     13874     13876     13868     13871     13874     13877
     13869     13868     13871     13872     13869     13868     13871     13873
     13869     13868     13871     13874     13870     13868     13871     13872
     13870     13868     13871     13873     13870     13868     13871     13874
     13871     13874     13877     13878     13871     13874     13877     13879
     13871     13874     13877     13880     13872     13871     13874     13875
     13872     13871     13874     13876     13872     13871     13874     13877
     13873     13871     13874     13875     13873     13871     13874     13876
     13873     13871     13874     13877     13874     13877     13880     13881
     13874     13877     13880     13882     13874     13877     13880     13883
     13875     13874     13877     13878     13875     13874     13877     13879
     13875     13874     13877     13880     13876     13874     13877     13878
     13876     13874     13877     13879     13876     13874     13877     13880
     13877     13880     13883     13884     13877     13880     13883     13885
     13877     13880     13883     13886     13878     13877     13880     13881
     13878     13877     13880     13882     13878     13877     13880     13883
     13879     13877     13880     13881     13879     13877     13880     13882
     13879     13877     13880     13883     13880     13883     13886     13887
     13880     13883     13886     13888     13880     13883     13886     13889
     13881     13880     13883     13884     13881     13880     13883     13885
     13881     13880     13883     13886     13882     13880     13883     13884
     13882     13880     13883     13885     13882     13880     13883     13886
     13884     13883     13886     13887     13884     13883     13886     13888
     13884     13883     13886     13889     13885     13883     13886     13887
     13885     13883     13886     13888     13885     13883     13886     13889
     13890     13893     13896     13897     13890     13893     13896     13898
     13890     13893     13896     13899     13891     13890     13893     13894
     13891     13890     13893     13895     13891     13890     13893     13896
     13892     13890     13893     13894     13892     13890     13893     13895
     13892     13890     13893     13896     13893     13896     13899     13900
     13893     13896     13899     13901     13893     13896     13899     13902
     13894     13893     13896     13897     13894     13893     13896     13898
     13894     13893     13896     13899     13895     13893     13896     13897
     13895     13893     13896     13898     13895     13893     13896     13899
     13896     13899     13902     13903     13896     13899     13902     13904
     13896     13899     13902     13905     13897     13896     13899     13900
     13897     13896     13899     13901     13897     13896     13899     13902
     13898     13896     13899     13900     13898     13896     13899     13901
     13898     13896     13899     13902     13899     13902     13905     13906
     13899     13902     13905     13907     13899     13902     13905     13908
     13900     13899     13902     13903     13900     13899     13902     13904
     13900     13899     13902     13905     13901     13899     13902     13903
     13901     13899     13902     13904     13901     13899     13902     13905
     13902     13905     13908     13909     13902     13905     13908     13910
     13902     13905     13908     13911     13903     13902     13905     13906
     13903     13902     13905     13907     13903     13902     13905     13908
     13904     13902     13905     13906     13904     13902     13905     13907
     13904     13902     13905     13908     13905     13908     13911     13912
     13905     13908     13911     13913     13905     13908     13911     13914
     13906     13905     13908     13909     13906     13905     13908     13910
     13906     13905     13908     13911     13907     13905     13908     13909
     13907     13905     13908     13910     13907     13905     13908     13911
     13908     13911     13914     13915     13908     13911     13914     13916
     13908     13911     13914     13917     13909     13908     13911     13912
     13909     13908     13911     13913     13909     13908     13911     13914
     13910     13908     13911     13912     13910     13908     13911     13913
     13910     13908     13911     13914     13911     13914     13917     13918
     13911     13914     13917     13919     13911     13914     13917     13920
     13912     13911     13914     13915     13912     13911     13914     13916
     13912     13911     13914     13917     13913     13911     13914     13915
     13913     13911     13914     13916     13913     13911     13914     13917
     13914     13917     13920     13921     13914     13917     13920     13922
     13914     13917     13920     13923     13915     13914     13917     13918
     13915     13914     13917     13919     13915     13914     13917     13920
     13916     13914     13917     13918     13916     13914     13917     13919
     13916     13914     13917     13920     13917     13920     13923     13924
     13917     13920     13923     13925     13917     13920     13923     13926
     13918     13917     13920     13921     13918     13917     13920     13922
     13918     13917     13920     13923     13919     13917     13920     13921
     13919     13917     13920     13922     13919     13917     13920     13923
     13920     13923     13926     13927     13920     13923     13926     13928
     13920     13923     13926     13929     13921     13920     13923     13924
     13921     13920     13923     13925     13921     13920     13923     13926
     13922     13920     13923     13924     13922     13920     13923     13925
     13922     13920     13923     13926     13923     13926     13929     13930
     13923     13926     13929     13931     13923     13926     13929     13932
     13924     13923     13926     13927     13924     13923     13926     13928
     13924     13923     13926     13929     13925     13923     13926     13927
     13925     13923     13926     13928     13925     13923     13926     13929
     13927     13926     13929     13930     13927     13926     13929     13931
     13927     13926     13929     13932     13928     13926     13929     13930
     13928     13926     13929     13931     13928     13926     13929     13932
     13933     13934     13949     13950     13933     13934     13949     13951
     13933     13934     13949     13955     13934     13933     13937     13938
     13934     13933     13937     13939     13934     13933     13937     13940
     13934     13933     13941     13942     13934     13933     13941     13943
     13934     13933     13941     13944     13934     13933     13945     13946
     13934     13933     13945     13947     13934     13933     13945     13948
     13934     13949     13955     13952     13935     13934     13933     13937
     13935     13934     13933     13941     13935     13934     13933     13945
     13935     13934     13949     13950     13935     13934     13949     13951
     13935     13934     13949     13955     13936     13934     13933     13937
     13936     13934     13933     13941     13936     13934     13933     13945
     13936     13934     13949     13950     13936     13934     13949     13951
     13936     13934     13949     13955     13937     13933     13934     13949
     13937     13933     13941     13942     13937     13933     13941     13943
     13937     13933     13941     13944     13937     13933     13945     13946
     13937     13933     13945     13947     13937     13933     13945     13948
     13938     13937     13933     13941     13938     13937     13933     13945
     13939     13937     13933     13941     13939     13937     13933     13945
     13940     13937     13933     13941     13940     13937     13933     13945
     13941     13933     13934     13949     13941     13933     13945     13946
     13941     13933     13945     13947     13941     13933     13945     13948
     13942     13941     13933     13945     13943     13941     13933     13945
     13944     13941     13933     13945     13945     13933     13934     13949
     13949     13955     13952     13953     13949     13955     13952     13954
     13949     13955     13952     13956     13950     13949     13955     13952
     13951     13949     13955     13952     13952     13956     13957     13958
     13952     13956     13957     13959     13952     13956     13957     13960
     13953     13952     13956     13957     13954     13952     13956     13957
     13955     13952     13956     13957     13956     13957     13960     13961
     13956     13957     13960     13962     13956     13957     13960     13968
     13957     13960     13962     13963     13957     13960     13968     13969
     13957     13960     13968     13970     13957     13960     13968     13971
     13958     13957     13960     13961     13958     13957     13960     13962
     13958     13957     13960     13968     13959     13957     13960     13961
     13959     13957     13960     13962     13959     13957     13960     13968
     13960     13962     13963     13964     13960     13962     13963     13965
     13960     13968     13971     13972     13961     13960     13962     13963
     13961     13960     13968     13969     13961     13960     13968     13970
     13961     13960     13968     13971     13962     13960     13968     13969
     13962     13960     13968     13970     13962     13960     13968     13971
     13962     13963     13965     13966     13962     13963     13965     13967
     13962     13963     13965     13977     13963     13962     13960     13968
     13963     13965     13977     13978     13963     13965     13977     13979
     13963     13965     13977     13980     13964     13963     13965     13966
     13964     13963     13965     13967     13964     13963     13965     13977
     13965     13977     13980     13981     13965     13977     13980     13982
     13965     13977     13980     13983     13966     13965     13977     13978
     13966     13965     13977     13979     13966     13965     13977     13980
     13967     13965     13977     13978     13967     13965     13977     13979
     13967     13965     13977     13980     13968     13971     13972     13973
     13968     13971     13972     13974     13969     13968     13971     13972
     13970     13968     13971     13972     13971     13972     13974     13975
     13971     13972     13974     13976     13971     13972     13974     14024
     13972     13974     14024     14025     13972     13974     14024     14026
     13972     13974     14024     14027     13973     13972     13974     13975
     13973     13972     13974     13976     13973     13972     13974     14024
     13974     14024     14027     14028     13974     14024     14027     14029
     13974     14024     14027     14030     13975     13974     14024     14025
     13975     13974     14024     14026     13975     13974     14024     14027
     13976     13974     14024     14025     13976     13974     14024     14026
     13976     13974     14024     14027     13977     13980     13983     13984
     13977     13980     13983     13985     13977     13980     13983     13986
     13978     13977     13980     13981     13978     13977     13980     13982
     13978     13977     13980     13983     13979     13977     13980     13981
     13979     13977     13980     13982     13979     13977     13980     13983
     13980     13983     13986     13987     13980     13983     13986     13988
     13980     13983     13986     13989     13981     13980     13983     13984
     13981     13980     13983     13985     13981     13980     13983     13986
     13982     13980     13983     13984     13982     13980     13983     13985
     13982     13980     13983     13986     13983     13986     13989     13990
     13983     13986     13989     13991     13983     13986     13989     13992
     13984     13983     13986     13987     13984     13983     13986     13988
     13984     13983     13986     13989     13985     13983     13986     13987
     13985     13983     13986     13988     13985     13983     13986     13989
     13986     13989     13992     13993     13986     13989     13992     13994
     13986     13989     13992     13995     13987     13986     13989     13990
     13987     13986     13989     13991     13987     13986     13989     13992
     13988     13986     13989     13990     13988     13986     13989     13991
     13988     13986     13989     13992     13989     13992     13995     13996
     13989     13992     13995     13997     13990     13989     13992     13993
     13990     13989     13992     13994     13990     13989     13992     13995
     13991     13989     13992     13993     13991     13989     13992     13994
     13991     13989     13992     13995     13992     13995     13997     13998
     13992     13995     13997     13999     13993     13992     13995     13996
     13993     13992     13995     13997     13994     13992     13995     13996
     13994     13992     13995     13997     13995     13997     13999     14000
     13995     13997     13999     14001     13995     13997     13999     14002
     13996     13995     13997     13998     13996     13995     13997     13999
     13997     13999     14002     14003     13997     13999     14002     14004
     13997     13999     14002     14005     13998     13997     13999     14000
     13998     13997     13999     14001     13998     13997     13999     14002
     13999     14002     14005     14006     13999     14002     14005     14007
     13999     14002     14005     14008     14000     13999     14002     14003
     14000     13999     14002     14004     14000     13999     14002     14005
     14001     13999     14002     14003     14001     13999     14002     14004
     14001     13999     14002     14005     14002     14005     14008     14009
     14002     14005     14008     14010     14002     14005     14008     14011
     14003     14002     14005     14006     14003     14002     14005     14007
     14003     14002     14005     14008     14004     14002     14005     14006
     14004     14002     14005     14007     14004     14002     14005     14008
     14005     14008     14011     14012     14005     14008     14011     14013
     14005     14008     14011     14014     14006     14005     14008     14009
     14006     14005     14008     14010     14006     14005     14008     14011
     14007     14005     14008     14009     14007     14005     14008     14010
     14007     14005     14008     14011     14008     14011     14014     14015
     14008     14011     14014     14016     14008     14011     14014     14017
     14009     14008     14011     14012     14009     14008     14011     14013
     14009     14008     14011     14014     14010     14008     14011     14012
     14010     14008     14011     14013     14010     14008     14011     14014
     14011     14014     14017     14018     14011     14014     14017     14019
     14011     14014     14017     14020     14012     14011     14014     14015
     14012     14011     14014     14016     14012     14011     14014     14017
     14013     14011     14014     14015     14013     14011     14014     14016
     14013     14011     14014     14017     14014     14017     14020     14021
     14014     14017     14020     14022     14014     14017     14020     14023
     14015     14014     14017     14018     14015     14014     14017     14019
     14015     14014     14017     14020     14016     14014     14017     14018
     14016     14014     14017     14019     14016     14014     14017     14020
     14018     14017     14020     14021     14018     14017     14020     14022
     14018     14017     14020     14023     14019     14017     14020     14021
     14019     14017     14020     14022     14019     14017     14020     14023
     14024     14027     14030     14031     14024     14027     14030     14032
     14024     14027     14030     14033     14025     14024     14027     14028
     14025     14024     14027     14029     14025     14024     14027     14030
     14026     14024     14027     14028     14026     14024     14027     14029
     14026     14024     14027     14030     14027     14030     14033     14034
     14027     14030     14033     14035     14027     14030     14033     14036
     14028     14027     14030     14031     14028     14027     14030     14032
     14028     14027     14030     14033     14029     14027     14030     14031
     14029     14027     14030     14032     14029     14027     14030     14033
     14030     14033     14036     14037     14030     14033     14036     14038
     14030     14033     14036     14039     14031     14030     14033     14034
     14031     14030     14033     14035     14031     14030     14033     14036
     14032     14030     14033     14034     14032     14030     14033     14035
     14032     14030     14033     14036     14033     14036     14039     14040
     14033     14036     14039     14041     14033     14036     14039     14042
     14034     14033     14036     14037     14034     14033     14036     14038
     14034     14033     14036     14039     14035     14033     14036     14037
     14035     14033     14036     14038     14035     14033     14036     14039
     14036     14039     14042     14043     14036     14039     14042     14044
     14036     14039     14042     14045     14037     14036     14039     14040
     14037     14036     14039     14041     14037     14036     14039     14042
     14038     14036     14039     14040     14038     14036     14039     14041
     14038     14036     14039     14042     14039     14042     14045     14046
     14039     14042     14045     14047     14039     14042     14045     14048
     14040     14039     14042     14043     14040     14039     14042     14044
     14040     14039     14042     14045     14041     14039     14042     14043
     14041     14039     14042     14044     14041     14039     14042     14045
     14042     14045     14048     14049     14042     14045     14048     14050
     14042     14045     14048     14051     14043     14042     14045     14046
     14043     14042     14045     14047     14043     14042     14045     14048
     14044     14042     14045     14046     14044     14042     14045     14047
     14044     14042     14045     14048     14045     14048     14051     14052
     14045     14048     14051     14053     14045     14048     14051     14054
     14046     14045     14048     14049     14046     14045     14048     14050
     14046     14045     14048     14051     14047     14045     14048     14049
     14047     14045     14048     14050     14047     14045     14048     14051
     14048     14051     14054     14055     14048     14051     14054     14056
     14048     14051     14054     14057     14049     14048     14051     14052
     14049     14048     14051     14053     14049     14048     14051     14054
     14050     14048     14051     14052     14050     14048     14051     14053
     14050     14048     14051     14054     14051     14054     14057     14058
     14051     14054     14057     14059     14051     14054     14057     14060
     14052     14051     14054     14055     14052     14051     14054     14056
     14052     14051     14054     14057     14053     14051     14054     14055
     14053     14051     14054     14056     14053     14051     14054     14057
     14054     14057     14060     14061     14054     14057     14060     14062
     14054     14057     14060     14063     14055     14054     14057     14058
     14055     14054     14057     14059     14055     14054     14057     14060
     14056     14054     14057     14058     14056     14054     14057     14059
     14056     14054     14057     14060     14057     14060     14063     14064
     14057     14060     14063     14065     14057     14060     14063     14066
     14058     14057     14060     14061     14058     14057     14060     14062
     14058     14057     14060     14063     14059     14057     14060     14061
     14059     14057     14060     14062     14059     14057     14060     14063
     14061     14060     14063     14064     14061     14060     14063     14065
     14061     14060     14063     14066     14062     14060     14063     14064
     14062     14060     14063     14065     14062     14060     14063     14066
     14067     14071     14073     14074     14067     14071     14073     14075
     14067     14071     14076     14077     14067     14071     14076     14078
     14067     14071     14076     14082     14068     14067     14071     14072
     14068     14067     14071     14073     14068     14067     14071     14076
     14069     14067     14071     14072     14069     14067     14071     14073
     14069     14067     14071     14076     14070     14067     14071     14072
     14070     14067     14071     14073     14070     14067     14071     14076
     14071     14076     14082     14079     14072     14071     14073     14074
     14072     14071     14073     14075     14072     14071     14076     14077
     14072     14071     14076     14078     14072     14071     14076     14082
     14073     14071     14076     14077     14073     14071     14076     14078
     14073     14071     14076     14082     14074     14073     14071     14076
     14075     14073     14071     14076     14076     14082     14079     14080
     14076     14082     14079     14081     14076     14082     14079     14083
     14077     14076     14082     14079     14078     14076     14082     14079
     14079     14083     14084     14085     14079     14083     14084     14086
     14079     14083     14084     14087     14080     14079     14083     14084
     14081     14079     14083     14084     14082     14079     14083     14084
     14083     14084     14087     14088     14083     14084     14087     14089
     14083     14084     14087     14095     14084     14087     14089     14090
     14084     14087     14095     14096     14084     14087     14095     14097
     14084     14087     14095     14098     14085     14084     14087     14088
     14085     14084     14087     14089     14085     14084     14087     14095
     14086     14084     14087     14088     14086     14084     14087     14089
     14086     14084     14087     14095     14087     14089     14090     14091
     14087     14089     14090     14092     14087     14095     14098     14099
     14088     14087     14089     14090     14088     14087     14095     14096
     14088     14087     14095     14097     14088     14087     14095     14098
     14089     14087     14095     14096     14089     14087     14095     14097
     14089     14087     14095     14098     14089     14090     14092     14093
     14089     14090     14092     14094     14089     14090     14092     14104
     14090     14089     14087     14095     14090     14092     14104     14105
     14090     14092     14104     14106     14090     14092     14104     14107
     14091     14090     14092     14093     14091     14090     14092     14094
     14091     14090     14092     14104     14092     14104     14107     14108
     14092     14104     14107     14109     14092     14104     14107     14110
     14093     14092     14104     14105     14093     14092     14104     14106
     14093     14092     14104     14107     14094     14092     14104     14105
     14094     14092     14104     14106     14094     14092     14104     14107
     14095     14098     14099     14100     14095     14098     14099     14101
     14096     14095     14098     14099     14097     14095     14098     14099
     14098     14099     14101     14102     14098     14099     14101     14103
     14098     14099     14101     14151     14099     14101     14151     14152
     14099     14101     14151     14153     14099     14101     14151     14154
     14100     14099     14101     14102     14100     14099     14101     14103
     14100     14099     14101     14151     14101     14151     14154     14155
     14101     14151     14154     14156     14101     14151     14154     14157
     14102     14101     14151     14152     14102     14101     14151     14153
     14102     14101     14151     14154     14103     14101     14151     14152
     14103     14101     14151     14153     14103     14101     14151     14154
     14104     14107     14110     14111     14104     14107     14110     14112
     14104     14107     14110     14113     14105     14104     14107     14108
     14105     14104     14107     14109     14105     14104     14107     14110
     14106     14104     14107     14108     14106     14104     14107     14109
     14106     14104     14107     14110     14107     14110     14113     14114
     14107     14110     14113     14115     14107     14110     14113     14116
     14108     14107     14110     14111     14108     14107     14110     14112
     14108     14107     14110     14113     14109     14107     14110     14111
     14109     14107     14110     14112     14109     14107     14110     14113
     14110     14113     14116     14117     14110     14113     14116     14118
     14110     14113     14116     14119     14111     14110     14113     14114
     14111     14110     14113     14115     14111     14110     14113     14116
     14112     14110     14113     14114     14112     14110     14113     14115
     14112     14110     14113     14116     14113     14116     14119     14120
     14113     14116     14119     14121     14113     14116     14119     14122
     14114     14113     14116     14117     14114     14113     14116     14118
     14114     14113     14116     14119     14115     14113     14116     14117
     14115     14113     14116     14118     14115     14113     14116     14119
     14116     14119     14122     14123     14116     14119     14122     14124
     14117     14116     14119     14120     14117     14116     14119     14121
     14117     14116     14119     14122     14118     14116     14119     14120
     14118     14116     14119     14121     14118     14116     14119     14122
     14119     14122     14124     14125     14119     14122     14124     14126
     14120     14119     14122     14123     14120     14119     14122     14124
     14121     14119     14122     14123     14121     14119     14122     14124
     14122     14124     14126     14127     14122     14124     14126     14128
     14122     14124     14126     14129     14123     14122     14124     14125
     14123     14122     14124     14126     14124     14126     14129     14130
     14124     14126     14129     14131     14124     14126     14129     14132
     14125     14124     14126     14127     14125     14124     14126     14128
     14125     14124     14126     14129     14126     14129     14132     14133
     14126     14129     14132     14134     14126     14129     14132     14135
     14127     14126     14129     14130     14127     14126     14129     14131
     14127     14126     14129     14132     14128     14126     14129     14130
     14128     14126     14129     14131     14128     14126     14129     14132
     14129     14132     14135     14136     14129     14132     14135     14137
     14129     14132     14135     14138     14130     14129     14132     14133
     14130     14129     14132     14134     14130     14129     14132     14135
     14131     14129     14132     14133     14131     14129     14132     14134
     14131     14129     14132     14135     14132     14135     14138     14139
     14132     14135     14138     14140     14132     14135     14138     14141
     14133     14132     14135     14136     14133     14132     14135     14137
     14133     14132     14135     14138     14134     14132     14135     14136
     14134     14132     14135     14137     14134     14132     14135     14138
     14135     14138     14141     14142     14135     14138     14141     14143
     14135     14138     14141     14144     14136     14135     14138     14139
     14136     14135     14138     14140     14136     14135     14138     14141
     14137     14135     14138     14139     14137     14135     14138     14140
     14137     14135     14138     14141     14138     14141     14144     14145
     14138     14141     14144     14146     14138     14141     14144     14147
     14139     14138     14141     14142     14139     14138     14141     14143
     14139     14138     14141     14144     14140     14138     14141     14142
     14140     14138     14141     14143     14140     14138     14141     14144
     14141     14144     14147     14148     14141     14144     14147     14149
     14141     14144     14147     14150     14142     14141     14144     14145
     14142     14141     14144     14146     14142     14141     14144     14147
     14143     14141     14144     14145     14143     14141     14144     14146
     14143     14141     14144     14147     14145     14144     14147     14148
     14145     14144     14147     14149     14145     14144     14147     14150
     14146     14144     14147     14148     14146     14144     14147     14149
     14146     14144     14147     14150     14151     14154     14157     14158
     14151     14154     14157     14159     14151     14154     14157     14160
     14152     14151     14154     14155     14152     14151     14154     14156
     14152     14151     14154     14157     14153     14151     14154     14155
     14153     14151     14154     14156     14153     14151     14154     14157
     14154     14157     14160     14161     14154     14157     14160     14162
     14154     14157     14160     14163     14155     14154     14157     14158
     14155     14154     14157     14159     14155     14154     14157     14160
     14156     14154     14157     14158     14156     14154     14157     14159
     14156     14154     14157     14160     14157     14160     14163     14164
     14157     14160     14163     14165     14157     14160     14163     14166
     14158     14157     14160     14161     14158     14157     14160     14162
     14158     14157     14160     14163     14159     14157     14160     14161
     14159     14157     14160     14162     14159     14157     14160     14163
     14160     14163     14166     14167     14160     14163     14166     14168
     14160     14163     14166     14169     14161     14160     14163     14164
     14161     14160     14163     14165     14161     14160     14163     14166
     14162     14160     14163     14164     14162     14160     14163     14165
     14162     14160     14163     14166     14163     14166     14169     14170
     14163     14166     14169     14171     14163     14166     14169     14172
     14164     14163     14166     14167     14164     14163     14166     14168
     14164     14163     14166     14169     14165     14163     14166     14167
     14165     14163     14166     14168     14165     14163     14166     14169
     14166     14169     14172     14173     14166     14169     14172     14174
     14166     14169     14172     14175     14167     14166     14169     14170
     14167     14166     14169     14171     14167     14166     14169     14172
     14168     14166     14169     14170     14168     14166     14169     14171
     14168     14166     14169     14172     14169     14172     14175     14176
     14169     14172     14175     14177     14169     14172     14175     14178
     14170     14169     14172     14173     14170     14169     14172     14174
     14170     14169     14172     14175     14171     14169     14172     14173
     14171     14169     14172     14174     14171     14169     14172     14175
     14172     14175     14178     14179     14172     14175     14178     14180
     14172     14175     14178     14181     14173     14172     14175     14176
     14173     14172     14175     14177     14173     14172     14175     14178
     14174     14172     14175     14176     14174     14172     14175     14177
     14174     14172     14175     14178     14175     14178     14181     14182
     14175     14178     14181     14183     14175     14178     14181     14184
     14176     14175     14178     14179     14176     14175     14178     14180
     14176     14175     14178     14181     14177     14175     14178     14179
     14177     14175     14178     14180     14177     14175     14178     14181
     14178     14181     14184     14185     14178     14181     14184     14186
     14178     14181     14184     14187     14179     14178     14181     14182
     14179     14178     14181     14183     14179     14178     14181     14184
     14180     14178     14181     14182     14180     14178     14181     14183
     14180     14178     14181     14184     14181     14184     14187     14188
     14181     14184     14187     14189     14181     14184     14187     14190
     14182     14181     14184     14185     14182     14181     14184     14186
     14182     14181     14184     14187     14183     14181     14184     14185
     14183     14181     14184     14186     14183     14181     14184     14187
     14184     14187     14190     14191     14184     14187     14190     14192
     14184     14187     14190     14193     14185     14184     14187     14188
     14185     14184     14187     14189     14185     14184     14187     14190
     14186     14184     14187     14188     14186     14184     14187     14189
     14186     14184     14187     14190     14188     14187     14190     14191
     14188     14187     14190     14192     14188     14187     14190     14193
     14189     14187     14190     14191     14189     14187     14190     14192
     14189     14187     14190     14193     14194     14195     14210     14211
     14194     14195     14210     14212     14194     14195     14210     14216
     14195     14194     14198     14199     14195     14194     14198     14200
     14195     14194     14198     14201     14195     14194     14202     14203
     14195     14194     14202     14204     14195     14194     14202     14205
     14195     14194     14206     14207     14195     14194     14206     14208
     14195     14194     14206     14209     14195     14210     14216     14213
     14196     14195     14194     14198     14196     14195     14194     14202
     14196     14195     14194     14206     14196     14195     14210     14211
     14196     14195     14210     14212     14196     14195     14210     14216
     14197     14195     14194     14198     14197     14195     14194     14202
     14197     14195     14194     14206     14197     14195     14210     14211
     14197     14195     14210     14212     14197     14195     14210     14216
     14198     14194     14195     14210     14198     14194     14202     14203
     14198     14194     14202     14204     14198     14194     14202     14205
     14198     14194     14206     14207     14198     14194     14206     14208
     14198     14194     14206     14209     14199     14198     14194     14202
     14199     14198     14194     14206     14200     14198     14194     14202
     14200     14198     14194     14206     14201     14198     14194     14202
     14201     14198     14194     14206     14202     14194     14195     14210
     14202     14194     14206     14207     14202     14194     14206     14208
     14202     14194     14206     14209     14203     14202     14194     14206
     14204     14202     14194     14206     14205     14202     14194     14206
     14206     14194     14195     14210     14210     14216     14213     14214
     14210     14216     14213     14215     14210     14216     14213     14217
     14211     14210     14216     14213     14212     14210     14216     14213
     14213     14217     14218     14219     14213     14217     14218     14220
     14213     14217     14218     14221     14214     14213     14217     14218
     14215     14213     14217     14218     14216     14213     14217     14218
     14217     14218     14221     14222     14217     14218     14221     14223
     14217     14218     14221     14229     14218     14221     14223     14224
     14218     14221     14229     14230     14218     14221     14229     14231
     14218     14221     14229     14232     14219     14218     14221     14222
     14219     14218     14221     14223     14219     14218     14221     14229
     14220     14218     14221     14222     14220     14218     14221     14223
     14220     14218     14221     14229     14221     14223     14224     14225
     14221     14223     14224     14226     14221     14229     14232     14233
     14222     14221     14223     14224     14222     14221     14229     14230
     14222     14221     14229     14231     14222     14221     14229     14232
     14223     14221     14229     14230     14223     14221     14229     14231
     14223     14221     14229     14232     14223     14224     14226     14227
     14223     14224     14226     14228     14223     14224     14226     14238
     14224     14223     14221     14229     14224     14226     14238     14239
     14224     14226     14238     14240     14224     14226     14238     14241
     14225     14224     14226     14227     14225     14224     14226     14228
     14225     14224     14226     14238     14226     14238     14241     14242
     14226     14238     14241     14243     14226     14238     14241     14244
     14227     14226     14238     14239     14227     14226     14238     14240
     14227     14226     14238     14241     14228     14226     14238     14239
     14228     14226     14238     14240     14228     14226     14238     14241
     14229     14232     14233     14234     14229     14232     14233     14235
     14230     14229     14232     14233     14231     14229     14232     14233
     14232     14233     14235     14236     14232     14233     14235     14237
     14232     14233     14235     14285     14233     14235     14285     14286
     14233     14235     14285     14287     14233     14235     14285     14288
     14234     14233     14235     14236     14234     14233     14235     14237
     14234     14233     14235     14285     14235     14285     14288     14289
     14235     14285     14288     14290     14235     14285     14288     14291
     14236     14235     14285     14286     14236     14235     14285     14287
     14236     14235     14285     14288     14237     14235     14285     14286
     14237     14235     14285     14287     14237     14235     14285     14288
     14238     14241     14244     14245     14238     14241     14244     14246
     14238     14241     14244     14247     14239     14238     14241     14242
     14239     14238     14241     14243     14239     14238     14241     14244
     14240     14238     14241     14242     14240     14238     14241     14243
     14240     14238     14241     14244     14241     14244     14247     14248
     14241     14244     14247     14249     14241     14244     14247     14250
     14242     14241     14244     14245     14242     14241     14244     14246
     14242     14241     14244     14247     14243     14241     14244     14245
     14243     14241     14244     14246     14243     14241     14244     14247
     14244     14247     14250     14251     14244     14247     14250     14252
     14244     14247     14250     14253     14245     14244     14247     14248
     14245     14244     14247     14249     14245     14244     14247     14250
     14246     14244     14247     14248     14246     14244     14247     14249
     14246     14244     14247     14250     14247     14250     14253     14254
     14247     14250     14253     14255     14247     14250     14253     14256
     14248     14247     14250     14251     14248     14247     14250     14252
     14248     14247     14250     14253     14249     14247     14250     14251
     14249     14247     14250     14252     14249     14247     14250     14253
     14250     14253     14256     14257     14250     14253     14256     14258
     14251     14250     14253     14254     14251     14250     14253     14255
     14251     14250     14253     14256     14252     14250     14253     14254
     14252     14250     14253     14255     14252     14250     14253     14256
     14253     14256     14258     14259     14253     14256     14258     14260
     14254     14253     14256     14257     14254     14253     14256     14258
     14255     14253     14256     14257     14255     14253     14256     14258
     14256     14258     14260     14261     14256     14258     14260     14262
     14256     14258     14260     14263     14257     14256     14258     14259
     14257     14256     14258     14260     14258     14260     14263     14264
     14258     14260     14263     14265     14258     14260     14263     14266
     14259     14258     14260     14261     14259     14258     14260     14262
     14259     14258     14260     14263     14260     14263     14266     14267
     14260     14263     14266     14268     14260     14263     14266     14269
     14261     14260     14263     14264     14261     14260     14263     14265
     14261     14260     14263     14266     14262     14260     14263     14264
     14262     14260     14263     14265     14262     14260     14263     14266
     14263     14266     14269     14270     14263     14266     14269     14271
     14263     14266     14269     14272     14264     14263     14266     14267
     14264     14263     14266     14268     14264     14263     14266     14269
     14265     14263     14266     14267     14265     14263     14266     14268
     14265     14263     14266     14269     14266     14269     14272     14273
     14266     14269     14272     14274     14266     14269     14272     14275
     14267     14266     14269     14270     14267     14266     14269     14271
     14267     14266     14269     14272     14268     14266     14269     14270
     14268     14266     14269     14271     14268     14266     14269     14272
     14269     14272     14275     14276     14269     14272     14275     14277
     14269     14272     14275     14278     14270     14269     14272     14273
     14270     14269     14272     14274     14270     14269     14272     14275
     14271     14269     14272     14273     14271     14269     14272     14274
     14271     14269     14272     14275     14272     14275     14278     14279
     14272     14275     14278     14280     14272     14275     14278     14281
     14273     14272     14275     14276     14273     14272     14275     14277
     14273     14272     14275     14278     14274     14272     14275     14276
     14274     14272     14275     14277     14274     14272     14275     14278
     14275     14278     14281     14282     14275     14278     14281     14283
     14275     14278     14281     14284     14276     14275     14278     14279
     14276     14275     14278     14280     14276     14275     14278     14281
     14277     14275     14278     14279     14277     14275     14278     14280
     14277     14275     14278     14281     14279     14278     14281     14282
     14279     14278     14281     14283     14279     14278     14281     14284
     14280     14278     14281     14282     14280     14278     14281     14283
     14280     14278     14281     14284     14285     14288     14291     14292
     14285     14288     14291     14293     14285     14288     14291     14294
     14286     14285     14288     14289     14286     14285     14288     14290
     14286     14285     14288     14291     14287     14285     14288     14289
     14287     14285     14288     14290     14287     14285     14288     14291
     14288     14291     14294     14295     14288     14291     14294     14296
     14288     14291     14294     14297     14289     14288     14291     14292
     14289     14288     14291     14293     14289     14288     14291     14294
     14290     14288     14291     14292     14290     14288     14291     14293
     14290     14288     14291     14294     14291     14294     14297     14298
     14291     14294     14297     14299     14291     14294     14297     14300
     14292     14291     14294     14295     14292     14291     14294     14296
     14292     14291     14294     14297     14293     14291     14294     14295
     14293     14291     14294     14296     14293     14291     14294     14297
     14294     14297     14300     14301     14294     14297     14300     14302
     14294     14297     14300     14303     14295     14294     14297     14298
     14295     14294     14297     14299     14295     14294     14297     14300
     14296     14294     14297     14298     14296     14294     14297     14299
     14296     14294     14297     14300     14297     14300     14303     14304
     14297     14300     14303     14305     14297     14300     14303     14306
     14298     14297     14300     14301     14298     14297     14300     14302
     14298     14297     14300     14303     14299     14297     14300     14301
     14299     14297     14300     14302     14299     14297     14300     14303
     14300     14303     14306     14307     14300     14303     14306     14308
     14300     14303     14306     14309     14301     14300     14303     14304
     14301     14300     14303     14305     14301     14300     14303     14306
     14302     14300     14303     14304     14302     14300     14303     14305
     14302     14300     14303     14306     14303     14306     14309     14310
     14303     14306     14309     14311     14303     14306     14309     14312
     14304     14303     14306     14307     14304     14303     14306     14308
     14304     14303     14306     14309     14305     14303     14306     14307
     14305     14303     14306     14308     14305     14303     14306     14309
     14306     14309     14312     14313     14306     14309     14312     14314
     14306     14309     14312     14315     14307     14306     14309     14310
     14307     14306     14309     14311     14307     14306     14309     14312
     14308     14306     14309     14310     14308     14306     14309     14311
     14308     14306     14309     14312     14309     14312     14315     14316
     14309     14312     14315     14317     14309     14312     14315     14318
     14310     14309     14312     14313     14310     14309     14312     14314
     14310     14309     14312     14315     14311     14309     14312     14313
     14311     14309     14312     14314     14311     14309     14312     14315
     14312     14315     14318     14319     14312     14315     14318     14320
     14312     14315     14318     14321     14313     14312     14315     14316
     14313     14312     14315     14317     14313     14312     14315     14318
     14314     14312     14315     14316     14314     14312     14315     14317
     14314     14312     14315     14318     14315     14318     14321     14322
     14315     14318     14321     14323     14315     14318     14321     14324
     14316     14315     14318     14319     14316     14315     14318     14320
     14316     14315     14318     14321     14317     14315     14318     14319
     14317     14315     14318     14320     14317     14315     14318     14321
     14318     14321     14324     14325     14318     14321     14324     14326
     14318     14321     14324     14327     14319     14318     14321     14322
     14319     14318     14321     14323     14319     14318     14321     14324
     14320     14318     14321     14322     14320     14318     14321     14323
     14320     14318     14321     14324     14322     14321     14324     14325
     14322     14321     14324     14326     14322     14321     14324     14327
     14323     14321     14324     14325     14323     14321     14324     14326
     14323     14321     14324     14327     14328     14329     14344     14345
     14328     14329     14344     14346     14328     14329     14344     14350
     14329     14328     14332     14333     14329     14328     14332     14334
     14329     14328     14332     14335     14329     14328     14336     14337
     14329     14328     14336     14338     14329     14328     14336     14339
     14329     14328     14340     14341     14329     14328     14340     14342
     14329     14328     14340     14343     14329     14344     14350     14347
     14330     14329     14328     14332     14330     14329     14328     14336
     14330     14329     14328     14340     14330     14329     14344     14345
     14330     14329     14344     14346     14330     14329     14344     14350
     14331     14329     14328     14332     14331     14329     14328     14336
     14331     14329     14328     14340     14331     14329     14344     14345
     14331     14329     14344     14346     14331     14329     14344     14350
     14332     14328     14329     14344     14332     14328     14336     14337
     14332     14328     14336     14338     14332     14328     14336     14339
     14332     14328     14340     14341     14332     14328     14340     14342
     14332     14328     14340     14343     14333     14332     14328     14336
     14333     14332     14328     14340     14334     14332     14328     14336
     14334     14332     14328     14340     14335     14332     14328     14336
     14335     14332     14328     14340     14336     14328     14329     14344
     14336     14328     14340     14341     14336     14328     14340     14342
     14336     14328     14340     14343     14337     14336     14328     14340
     14338     14336     14328     14340     14339     14336     14328     14340
     14340     14328     14329     14344     14344     14350     14347     14348
     14344     14350     14347     14349     14344     14350     14347     14351
     14345     14344     14350     14347     14346     14344     14350     14347
     14347     14351     14352     14353     14347     14351     14352     14354
     14347     14351     14352     14355     14348     14347     14351     14352
     14349     14347     14351     14352     14350     14347     14351     14352
     14351     14352     14355     14356     14351     14352     14355     14357
     14351     14352     14355     14363     14352     14355     14357     14358
     14352     14355     14363     14364     14352     14355     14363     14365
     14352     14355     14363     14366     14353     14352     14355     14356
     14353     14352     14355     14357     14353     14352     14355     14363
     14354     14352     14355     14356     14354     14352     14355     14357
     14354     14352     14355     14363     14355     14357     14358     14359
     14355     14357     14358     14360     14355     14363     14366     14367
     14356     14355     14357     14358     14356     14355     14363     14364
     14356     14355     14363     14365     14356     14355     14363     14366
     14357     14355     14363     14364     14357     14355     14363     14365
     14357     14355     14363     14366     14357     14358     14360     14361
     14357     14358     14360     14362     14357     14358     14360     14372
     14358     14357     14355     14363     14358     14360     14372     14373
     14358     14360     14372     14374     14358     14360     14372     14375
     14359     14358     14360     14361     14359     14358     14360     14362
     14359     14358     14360     14372     14360     14372     14375     14376
     14360     14372     14375     14377     14360     14372     14375     14378
     14361     14360     14372     14373     14361     14360     14372     14374
     14361     14360     14372     14375     14362     14360     14372     14373
     14362     14360     14372     14374     14362     14360     14372     14375
     14363     14366     14367     14368     14363     14366     14367     14369
     14364     14363     14366     14367     14365     14363     14366     14367
     14366     14367     14369     14370     14366     14367     14369     14371
     14366     14367     14369     14419     14367     14369     14419     14420
     14367     14369     14419     14421     14367     14369     14419     14422
     14368     14367     14369     14370     14368     14367     14369     14371
     14368     14367     14369     14419     14369     14419     14422     14423
     14369     14419     14422     14424     14369     14419     14422     14425
     14370     14369     14419     14420     14370     14369     14419     14421
     14370     14369     14419     14422     14371     14369     14419     14420
     14371     14369     14419     14421     14371     14369     14419     14422
     14372     14375     14378     14379     14372     14375     14378     14380
     14372     14375     14378     14381     14373     14372     14375     14376
     14373     14372     14375     14377     14373     14372     14375     14378
     14374     14372     14375     14376     14374     14372     14375     14377
     14374     14372     14375     14378     14375     14378     14381     14382
     14375     14378     14381     14383     14375     14378     14381     14384
     14376     14375     14378     14379     14376     14375     14378     14380
     14376     14375     14378     14381     14377     14375     14378     14379
     14377     14375     14378     14380     14377     14375     14378     14381
     14378     14381     14384     14385     14378     14381     14384     14386
     14378     14381     14384     14387     14379     14378     14381     14382
     14379     14378     14381     14383     14379     14378     14381     14384
     14380     14378     14381     14382     14380     14378     14381     14383
     14380     14378     14381     14384     14381     14384     14387     14388
     14381     14384     14387     14389     14381     14384     14387     14390
     14382     14381     14384     14385     14382     14381     14384     14386
     14382     14381     14384     14387     14383     14381     14384     14385
     14383     14381     14384     14386     14383     14381     14384     14387
     14384     14387     14390     14391     14384     14387     14390     14392
     14385     14384     14387     14388     14385     14384     14387     14389
     14385     14384     14387     14390     14386     14384     14387     14388
     14386     14384     14387     14389     14386     14384     14387     14390
     14387     14390     14392     14393     14387     14390     14392     14394
     14388     14387     14390     14391     14388     14387     14390     14392
     14389     14387     14390     14391     14389     14387     14390     14392
     14390     14392     14394     14395     14390     14392     14394     14396
     14390     14392     14394     14397     14391     14390     14392     14393
     14391     14390     14392     14394     14392     14394     14397     14398
     14392     14394     14397     14399     14392     14394     14397     14400
     14393     14392     14394     14395     14393     14392     14394     14396
     14393     14392     14394     14397     14394     14397     14400     14401
     14394     14397     14400     14402     14394     14397     14400     14403
     14395     14394     14397     14398     14395     14394     14397     14399
     14395     14394     14397     14400     14396     14394     14397     14398
     14396     14394     14397     14399     14396     14394     14397     14400
     14397     14400     14403     14404     14397     14400     14403     14405
     14397     14400     14403     14406     14398     14397     14400     14401
     14398     14397     14400     14402     14398     14397     14400     14403
     14399     14397     14400     14401     14399     14397     14400     14402
     14399     14397     14400     14403     14400     14403     14406     14407
     14400     14403     14406     14408     14400     14403     14406     14409
     14401     14400     14403     14404     14401     14400     14403     14405
     14401     14400     14403     14406     14402     14400     14403     14404
     14402     14400     14403     14405     14402     14400     14403     14406
     14403     14406     14409     14410     14403     14406     14409     14411
     14403     14406     14409     14412     14404     14403     14406     14407
     14404     14403     14406     14408     14404     14403     14406     14409
     14405     14403     14406     14407     14405     14403     14406     14408
     14405     14403     14406     14409     14406     14409     14412     14413
     14406     14409     14412     14414     14406     14409     14412     14415
     14407     14406     14409     14410     14407     14406     14409     14411
     14407     14406     14409     14412     14408     14406     14409     14410
     14408     14406     14409     14411     14408     14406     14409     14412
     14409     14412     14415     14416     14409     14412     14415     14417
     14409     14412     14415     14418     14410     14409     14412     14413
     14410     14409     14412     14414     14410     14409     14412     14415
     14411     14409     14412     14413     14411     14409     14412     14414
     14411     14409     14412     14415     14413     14412     14415     14416
     14413     14412     14415     14417     14413     14412     14415     14418
     14414     14412     14415     14416     14414     14412     14415     14417
     14414     14412     14415     14418     14419     14422     14425     14426
     14419     14422     14425     14427     14419     14422     14425     14428
     14420     14419     14422     14423     14420     14419     14422     14424
     14420     14419     14422     14425     14421     14419     14422     14423
     14421     14419     14422     14424     14421     14419     14422     14425
     14422     14425     14428     14429     14422     14425     14428     14430
     14422     14425     14428     14431     14423     14422     14425     14426
     14423     14422     14425     14427     14423     14422     14425     14428
     14424     14422     14425     14426     14424     14422     14425     14427
     14424     14422     14425     14428     14425     14428     14431     14432
     14425     14428     14431     14433     14425     14428     14431     14434
     14426     14425     14428     14429     14426     14425     14428     14430
     14426     14425     14428     14431     14427     14425     14428     14429
     14427     14425     14428     14430     14427     14425     14428     14431
     14428     14431     14434     14435     14428     14431     14434     14436
     14428     14431     14434     14437     14429     14428     14431     14432
     14429     14428     14431     14433     14429     14428     14431     14434
     14430     14428     14431     14432     14430     14428     14431     14433
     14430     14428     14431     14434     14431     14434     14437     14438
     14431     14434     14437     14439     14431     14434     14437     14440
     14432     14431     14434     14435     14432     14431     14434     14436
     14432     14431     14434     14437     14433     14431     14434     14435
     14433     14431     14434     14436     14433     14431     14434     14437
     14434     14437     14440     14441     14434     14437     14440     14442
     14434     14437     14440     14443     14435     14434     14437     14438
     14435     14434     14437     14439     14435     14434     14437     14440
     14436     14434     14437     14438     14436     14434     14437     14439
     14436     14434     14437     14440     14437     14440     14443     14444
     14437     14440     14443     14445     14437     14440     14443     14446
     14438     14437     14440     14441     14438     14437     14440     14442
     14438     14437     14440     14443     14439     14437     14440     14441
     14439     14437     14440     14442     14439     14437     14440     14443
     14440     14443     14446     14447     14440     14443     14446     14448
     14440     14443     14446     14449     14441     14440     14443     14444
     14441     14440     14443     14445     14441     14440     14443     14446
     14442     14440     14443     14444     14442     14440     14443     14445
     14442     14440     14443     14446     14443     14446     14449     14450
     14443     14446     14449     14451     14443     14446     14449     14452
     14444     14443     14446     14447     14444     14443     14446     14448
     14444     14443     14446     14449     14445     14443     14446     14447
     14445     14443     14446     14448     14445     14443     14446     14449
     14446     14449     14452     14453     14446     14449     14452     14454
     14446     14449     14452     14455     14447     14446     14449     14450
     14447     14446     14449     14451     14447     14446     14449     14452
     14448     14446     14449     14450     14448     14446     14449     14451
     14448     14446     14449     14452     14449     14452     14455     14456
     14449     14452     14455     14457     14449     14452     14455     14458
     14450     14449     14452     14453     14450     14449     14452     14454
     14450     14449     14452     14455     14451     14449     14452     14453
     14451     14449     14452     14454     14451     14449     14452     14455
     14452     14455     14458     14459     14452     14455     14458     14460
     14452     14455     14458     14461     14453     14452     14455     14456
     14453     14452     14455     14457     14453     14452     14455     14458
     14454     14452     14455     14456     14454     14452     14455     14457
     14454     14452     14455     14458     14456     14455     14458     14459
     14456     14455     14458     14460     14456     14455     14458     14461
     14457     14455     14458     14459     14457     14455     14458     14460
     14457     14455     14458     14461     14462     14463     14478     14479
     14462     14463     14478     14480     14462     14463     14478     14484
     14463     14462     14466     14467     14463     14462     14466     14468
     14463     14462     14466     14469     14463     14462     14470     14471
     14463     14462     14470     14472     14463     14462     14470     14473
     14463     14462     14474     14475     14463     14462     14474     14476
     14463     14462     14474     14477     14463     14478     14484     14481
     14464     14463     14462     14466     14464     14463     14462     14470
     14464     14463     14462     14474     14464     14463     14478     14479
     14464     14463     14478     14480     14464     14463     14478     14484
     14465     14463     14462     14466     14465     14463     14462     14470
     14465     14463     14462     14474     14465     14463     14478     14479
     14465     14463     14478     14480     14465     14463     14478     14484
     14466     14462     14463     14478     14466     14462     14470     14471
     14466     14462     14470     14472     14466     14462     14470     14473
     14466     14462     14474     14475     14466     14462     14474     14476
     14466     14462     14474     14477     14467     14466     14462     14470
     14467     14466     14462     14474     14468     14466     14462     14470
     14468     14466     14462     14474     14469     14466     14462     14470
     14469     14466     14462     14474     14470     14462     14463     14478
     14470     14462     14474     14475     14470     14462     14474     14476
     14470     14462     14474     14477     14471     14470     14462     14474
     14472     14470     14462     14474     14473     14470     14462     14474
     14474     14462     14463     14478     14478     14484     14481     14482
     14478     14484     14481     14483     14478     14484     14481     14485
     14479     14478     14484     14481     14480     14478     14484     14481
     14481     14485     14486     14487     14481     14485     14486     14488
     14481     14485     14486     14489     14482     14481     14485     14486
     14483     14481     14485     14486     14484     14481     14485     14486
     14485     14486     14489     14490     14485     14486     14489     14491
     14485     14486     14489     14497     14486     14489     14491     14492
     14486     14489     14497     14498     14486     14489     14497     14499
     14486     14489     14497     14500     14487     14486     14489     14490
     14487     14486     14489     14491     14487     14486     14489     14497
     14488     14486     14489     14490     14488     14486     14489     14491
     14488     14486     14489     14497     14489     14491     14492     14493
     14489     14491     14492     14494     14489     14497     14500     14501
     14490     14489     14491     14492     14490     14489     14497     14498
     14490     14489     14497     14499     14490     14489     14497     14500
     14491     14489     14497     14498     14491     14489     14497     14499
     14491     14489     14497     14500     14491     14492     14494     14495
     14491     14492     14494     14496     14491     14492     14494     14506
     14492     14491     14489     14497     14492     14494     14506     14507
     14492     14494     14506     14508     14492     14494     14506     14509
     14493     14492     14494     14495     14493     14492     14494     14496
     14493     14492     14494     14506     14494     14506     14509     14510
     14494     14506     14509     14511     14494     14506     14509     14512
     14495     14494     14506     14507     14495     14494     14506     14508
     14495     14494     14506     14509     14496     14494     14506     14507
     14496     14494     14506     14508     14496     14494     14506     14509
     14497     14500     14501     14502     14497     14500     14501     14503
     14498     14497     14500     14501     14499     14497     14500     14501
     14500     14501     14503     14504     14500     14501     14503     14505
     14500     14501     14503     14553     14501     14503     14553     14554
     14501     14503     14553     14555     14501     14503     14553     14556
     14502     14501     14503     14504     14502     14501     14503     14505
     14502     14501     14503     14553     14503     14553     14556     14557
     14503     14553     14556     14558     14503     14553     14556     14559
     14504     14503     14553     14554     14504     14503     14553     14555
     14504     14503     14553     14556     14505     14503     14553     14554
     14505     14503     14553     14555     14505     14503     14553     14556
     14506     14509     14512     14513     14506     14509     14512     14514
     14506     14509     14512     14515     14507     14506     14509     14510
     14507     14506     14509     14511     14507     14506     14509     14512
     14508     14506     14509     14510     14508     14506     14509     14511
     14508     14506     14509     14512     14509     14512     14515     14516
     14509     14512     14515     14517     14509     14512     14515     14518
     14510     14509     14512     14513     14510     14509     14512     14514
     14510     14509     14512     14515     14511     14509     14512     14513
     14511     14509     14512     14514     14511     14509     14512     14515
     14512     14515     14518     14519     14512     14515     14518     14520
     14512     14515     14518     14521     14513     14512     14515     14516
     14513     14512     14515     14517     14513     14512     14515     14518
     14514     14512     14515     14516     14514     14512     14515     14517
     14514     14512     14515     14518     14515     14518     14521     14522
     14515     14518     14521     14523     14515     14518     14521     14524
     14516     14515     14518     14519     14516     14515     14518     14520
     14516     14515     14518     14521     14517     14515     14518     14519
     14517     14515     14518     14520     14517     14515     14518     14521
     14518     14521     14524     14525     14518     14521     14524     14526
     14519     14518     14521     14522     14519     14518     14521     14523
     14519     14518     14521     14524     14520     14518     14521     14522
     14520     14518     14521     14523     14520     14518     14521     14524
     14521     14524     14526     14527     14521     14524     14526     14528
     14522     14521     14524     14525     14522     14521     14524     14526
     14523     14521     14524     14525     14523     14521     14524     14526
     14524     14526     14528     14529     14524     14526     14528     14530
     14524     14526     14528     14531     14525     14524     14526     14527
     14525     14524     14526     14528     14526     14528     14531     14532
     14526     14528     14531     14533     14526     14528     14531     14534
     14527     14526     14528     14529     14527     14526     14528     14530
     14527     14526     14528     14531     14528     14531     14534     14535
     14528     14531     14534     14536     14528     14531     14534     14537
     14529     14528     14531     14532     14529     14528     14531     14533
     14529     14528     14531     14534     14530     14528     14531     14532
     14530     14528     14531     14533     14530     14528     14531     14534
     14531     14534     14537     14538     14531     14534     14537     14539
     14531     14534     14537     14540     14532     14531     14534     14535
     14532     14531     14534     14536     14532     14531     14534     14537
     14533     14531     14534     14535     14533     14531     14534     14536
     14533     14531     14534     14537     14534     14537     14540     14541
     14534     14537     14540     14542     14534     14537     14540     14543
     14535     14534     14537     14538     14535     14534     14537     14539
     14535     14534     14537     14540     14536     14534     14537     14538
     14536     14534     14537     14539     14536     14534     14537     14540
     14537     14540     14543     14544     14537     14540     14543     14545
     14537     14540     14543     14546     14538     14537     14540     14541
     14538     14537     14540     14542     14538     14537     14540     14543
     14539     14537     14540     14541     14539     14537     14540     14542
     14539     14537     14540     14543     14540     14543     14546     14547
     14540     14543     14546     14548     14540     14543     14546     14549
     14541     14540     14543     14544     14541     14540     14543     14545
     14541     14540     14543     14546     14542     14540     14543     14544
     14542     14540     14543     14545     14542     14540     14543     14546
     14543     14546     14549     14550     14543     14546     14549     14551
     14543     14546     14549     14552     14544     14543     14546     14547
     14544     14543     14546     14548     14544     14543     14546     14549
     14545     14543     14546     14547     14545     14543     14546     14548
     14545     14543     14546     14549     14547     14546     14549     14550
     14547     14546     14549     14551     14547     14546     14549     14552
     14548     14546     14549     14550     14548     14546     14549     14551
     14548     14546     14549     14552     14553     14556     14559     14560
     14553     14556     14559     14561     14553     14556     14559     14562
     14554     14553     14556     14557     14554     14553     14556     14558
     14554     14553     14556     14559     14555     14553     14556     14557
     14555     14553     14556     14558     14555     14553     14556     14559
     14556     14559     14562     14563     14556     14559     14562     14564
     14556     14559     14562     14565     14557     14556     14559     14560
     14557     14556     14559     14561     14557     14556     14559     14562
     14558     14556     14559     14560     14558     14556     14559     14561
     14558     14556     14559     14562     14559     14562     14565     14566
     14559     14562     14565     14567     14559     14562     14565     14568
     14560     14559     14562     14563     14560     14559     14562     14564
     14560     14559     14562     14565     14561     14559     14562     14563
     14561     14559     14562     14564     14561     14559     14562     14565
     14562     14565     14568     14569     14562     14565     14568     14570
     14562     14565     14568     14571     14563     14562     14565     14566
     14563     14562     14565     14567     14563     14562     14565     14568
     14564     14562     14565     14566     14564     14562     14565     14567
     14564     14562     14565     14568     14565     14568     14571     14572
     14565     14568     14571     14573     14565     14568     14571     14574
     14566     14565     14568     14569     14566     14565     14568     14570
     14566     14565     14568     14571     14567     14565     14568     14569
     14567     14565     14568     14570     14567     14565     14568     14571
     14568     14571     14574     14575     14568     14571     14574     14576
     14568     14571     14574     14577     14569     14568     14571     14572
     14569     14568     14571     14573     14569     14568     14571     14574
     14570     14568     14571     14572     14570     14568     14571     14573
     14570     14568     14571     14574     14571     14574     14577     14578
     14571     14574     14577     14579     14571     14574     14577     14580
     14572     14571     14574     14575     14572     14571     14574     14576
     14572     14571     14574     14577     14573     14571     14574     14575
     14573     14571     14574     14576     14573     14571     14574     14577
     14574     14577     14580     14581     14574     14577     14580     14582
     14574     14577     14580     14583     14575     14574     14577     14578
     14575     14574     14577     14579     14575     14574     14577     14580
     14576     14574     14577     14578     14576     14574     14577     14579
     14576     14574     14577     14580     14577     14580     14583     14584
     14577     14580     14583     14585     14577     14580     14583     14586
     14578     14577     14580     14581     14578     14577     14580     14582
     14578     14577     14580     14583     14579     14577     14580     14581
     14579     14577     14580     14582     14579     14577     14580     14583
     14580     14583     14586     14587     14580     14583     14586     14588
     14580     14583     14586     14589     14581     14580     14583     14584
     14581     14580     14583     14585     14581     14580     14583     14586
     14582     14580     14583     14584     14582     14580     14583     14585
     14582     14580     14583     14586     14583     14586     14589     14590
     14583     14586     14589     14591     14583     14586     14589     14592
     14584     14583     14586     14587     14584     14583     14586     14588
     14584     14583     14586     14589     14585     14583     14586     14587
     14585     14583     14586     14588     14585     14583     14586     14589
     14586     14589     14592     14593     14586     14589     14592     14594
     14586     14589     14592     14595     14587     14586     14589     14590
     14587     14586     14589     14591     14587     14586     14589     14592
     14588     14586     14589     14590     14588     14586     14589     14591
     14588     14586     14589     14592     14590     14589     14592     14593
     14590     14589     14592     14594     14590     14589     14592     14595
     14591     14589     14592     14593     14591     14589     14592     14594
     14591     14589     14592     14595     14596     14597     14612     14613
     14596     14597     14612     14614     14596     14597     14612     14618
     14597     14596     14600     14601     14597     14596     14600     14602
     14597     14596     14600     14603     14597     14596     14604     14605
     14597     14596     14604     14606     14597     14596     14604     14607
     14597     14596     14608     14609     14597     14596     14608     14610
     14597     14596     14608     14611     14597     14612     14618     14615
     14598     14597     14596     14600     14598     14597     14596     14604
     14598     14597     14596     14608     14598     14597     14612     14613
     14598     14597     14612     14614     14598     14597     14612     14618
     14599     14597     14596     14600     14599     14597     14596     14604
     14599     14597     14596     14608     14599     14597     14612     14613
     14599     14597     14612     14614     14599     14597     14612     14618
     14600     14596     14597     14612     14600     14596     14604     14605
     14600     14596     14604     14606     14600     14596     14604     14607
     14600     14596     14608     14609     14600     14596     14608     14610
     14600     14596     14608     14611     14601     14600     14596     14604
     14601     14600     14596     14608     14602     14600     14596     14604
     14602     14600     14596     14608     14603     14600     14596     14604
     14603     14600     14596     14608     14604     14596     14597     14612
     14604     14596     14608     14609     14604     14596     14608     14610
     14604     14596     14608     14611     14605     14604     14596     14608
     14606     14604     14596     14608     14607     14604     14596     14608
     14608     14596     14597     14612     14612     14618     14615     14616
     14612     14618     14615     14617     14612     14618     14615     14619
     14613     14612     14618     14615     14614     14612     14618     14615
     14615     14619     14620     14621     14615     14619     14620     14622
     14615     14619     14620     14623     14616     14615     14619     14620
     14617     14615     14619     14620     14618     14615     14619     14620
     14619     14620     14623     14624     14619     14620     14623     14625
     14619     14620     14623     14631     14620     14623     14625     14626
     14620     14623     14631     14632     14620     14623     14631     14633
     14620     14623     14631     14634     14621     14620     14623     14624
     14621     14620     14623     14625     14621     14620     14623     14631
     14622     14620     14623     14624     14622     14620     14623     14625
     14622     14620     14623     14631     14623     14625     14626     14627
     14623     14625     14626     14628     14623     14631     14634     14635
     14624     14623     14625     14626     14624     14623     14631     14632
     14624     14623     14631     14633     14624     14623     14631     14634
     14625     14623     14631     14632     14625     14623     14631     14633
     14625     14623     14631     14634     14625     14626     14628     14629
     14625     14626     14628     14630     14625     14626     14628     14640
     14626     14625     14623     14631     14626     14628     14640     14641
     14626     14628     14640     14642     14626     14628     14640     14643
     14627     14626     14628     14629     14627     14626     14628     14630
     14627     14626     14628     14640     14628     14640     14643     14644
     14628     14640     14643     14645     14628     14640     14643     14646
     14629     14628     14640     14641     14629     14628     14640     14642
     14629     14628     14640     14643     14630     14628     14640     14641
     14630     14628     14640     14642     14630     14628     14640     14643
     14631     14634     14635     14636     14631     14634     14635     14637
     14632     14631     14634     14635     14633     14631     14634     14635
     14634     14635     14637     14638     14634     14635     14637     14639
     14634     14635     14637     14687     14635     14637     14687     14688
     14635     14637     14687     14689     14635     14637     14687     14690
     14636     14635     14637     14638     14636     14635     14637     14639
     14636     14635     14637     14687     14637     14687     14690     14691
     14637     14687     14690     14692     14637     14687     14690     14693
     14638     14637     14687     14688     14638     14637     14687     14689
     14638     14637     14687     14690     14639     14637     14687     14688
     14639     14637     14687     14689     14639     14637     14687     14690
     14640     14643     14646     14647     14640     14643     14646     14648
     14640     14643     14646     14649     14641     14640     14643     14644
     14641     14640     14643     14645     14641     14640     14643     14646
     14642     14640     14643     14644     14642     14640     14643     14645
     14642     14640     14643     14646     14643     14646     14649     14650
     14643     14646     14649     14651     14643     14646     14649     14652
     14644     14643     14646     14647     14644     14643     14646     14648
     14644     14643     14646     14649     14645     14643     14646     14647
     14645     14643     14646     14648     14645     14643     14646     14649
     14646     14649     14652     14653     14646     14649     14652     14654
     14646     14649     14652     14655     14647     14646     14649     14650
     14647     14646     14649     14651     14647     14646     14649     14652
     14648     14646     14649     14650     14648     14646     14649     14651
     14648     14646     14649     14652     14649     14652     14655     14656
     14649     14652     14655     14657     14649     14652     14655     14658
     14650     14649     14652     14653     14650     14649     14652     14654
     14650     14649     14652     14655     14651     14649     14652     14653
     14651     14649     14652     14654     14651     14649     14652     14655
     14652     14655     14658     14659     14652     14655     14658     14660
     14653     14652     14655     14656     14653     14652     14655     14657
     14653     14652     14655     14658     14654     14652     14655     14656
     14654     14652     14655     14657     14654     14652     14655     14658
     14655     14658     14660     14661     14655     14658     14660     14662
     14656     14655     14658     14659     14656     14655     14658     14660
     14657     14655     14658     14659     14657     14655     14658     14660
     14658     14660     14662     14663     14658     14660     14662     14664
     14658     14660     14662     14665     14659     14658     14660     14661
     14659     14658     14660     14662     14660     14662     14665     14666
     14660     14662     14665     14667     14660     14662     14665     14668
     14661     14660     14662     14663     14661     14660     14662     14664
     14661     14660     14662     14665     14662     14665     14668     14669
     14662     14665     14668     14670     14662     14665     14668     14671
     14663     14662     14665     14666     14663     14662     14665     14667
     14663     14662     14665     14668     14664     14662     14665     14666
     14664     14662     14665     14667     14664     14662     14665     14668
     14665     14668     14671     14672     14665     14668     14671     14673
     14665     14668     14671     14674     14666     14665     14668     14669
     14666     14665     14668     14670     14666     14665     14668     14671
     14667     14665     14668     14669     14667     14665     14668     14670
     14667     14665     14668     14671     14668     14671     14674     14675
     14668     14671     14674     14676     14668     14671     14674     14677
     14669     14668     14671     14672     14669     14668     14671     14673
     14669     14668     14671     14674     14670     14668     14671     14672
     14670     14668     14671     14673     14670     14668     14671     14674
     14671     14674     14677     14678     14671     14674     14677     14679
     14671     14674     14677     14680     14672     14671     14674     14675
     14672     14671     14674     14676     14672     14671     14674     14677
     14673     14671     14674     14675     14673     14671     14674     14676
     14673     14671     14674     14677     14674     14677     14680     14681
     14674     14677     14680     14682     14674     14677     14680     14683
     14675     14674     14677     14678     14675     14674     14677     14679
     14675     14674     14677     14680     14676     14674     14677     14678
     14676     14674     14677     14679     14676     14674     14677     14680
     14677     14680     14683     14684     14677     14680     14683     14685
     14677     14680     14683     14686     14678     14677     14680     14681
     14678     14677     14680     14682     14678     14677     14680     14683
     14679     14677     14680     14681     14679     14677     14680     14682
     14679     14677     14680     14683     14681     14680     14683     14684
     14681     14680     14683     14685     14681     14680     14683     14686
     14682     14680     14683     14684     14682     14680     14683     14685
     14682     14680     14683     14686     14687     14690     14693     14694
     14687     14690     14693     14695     14687     14690     14693     14696
     14688     14687     14690     14691     14688     14687     14690     14692
     14688     14687     14690     14693     14689     14687     14690     14691
     14689     14687     14690     14692     14689     14687     14690     14693
     14690     14693     14696     14697     14690     14693     14696     14698
     14690     14693     14696     14699     14691     14690     14693     14694
     14691     14690     14693     14695     14691     14690     14693     14696
     14692     14690     14693     14694     14692     14690     14693     14695
     14692     14690     14693     14696     14693     14696     14699     14700
     14693     14696     14699     14701     14693     14696     14699     14702
     14694     14693     14696     14697     14694     14693     14696     14698
     14694     14693     14696     14699     14695     14693     14696     14697
     14695     14693     14696     14698     14695     14693     14696     14699
     14696     14699     14702     14703     14696     14699     14702     14704
     14696     14699     14702     14705     14697     14696     14699     14700
     14697     14696     14699     14701     14697     14696     14699     14702
     14698     14696     14699     14700     14698     14696     14699     14701
     14698     14696     14699     14702     14699     14702     14705     14706
     14699     14702     14705     14707     14699     14702     14705     14708
     14700     14699     14702     14703     14700     14699     14702     14704
     14700     14699     14702     14705     14701     14699     14702     14703
     14701     14699     14702     14704     14701     14699     14702     14705
     14702     14705     14708     14709     14702     14705     14708     14710
     14702     14705     14708     14711     14703     14702     14705     14706
     14703     14702     14705     14707     14703     14702     14705     14708
     14704     14702     14705     14706     14704     14702     14705     14707
     14704     14702     14705     14708     14705     14708     14711     14712
     14705     14708     14711     14713     14705     14708     14711     14714
     14706     14705     14708     14709     14706     14705     14708     14710
     14706     14705     14708     14711     14707     14705     14708     14709
     14707     14705     14708     14710     14707     14705     14708     14711
     14708     14711     14714     14715     14708     14711     14714     14716
     14708     14711     14714     14717     14709     14708     14711     14712
     14709     14708     14711     14713     14709     14708     14711     14714
     14710     14708     14711     14712     14710     14708     14711     14713
     14710     14708     14711     14714     14711     14714     14717     14718
     14711     14714     14717     14719     14711     14714     14717     14720
     14712     14711     14714     14715     14712     14711     14714     14716
     14712     14711     14714     14717     14713     14711     14714     14715
     14713     14711     14714     14716     14713     14711     14714     14717
     14714     14717     14720     14721     14714     14717     14720     14722
     14714     14717     14720     14723     14715     14714     14717     14718
     14715     14714     14717     14719     14715     14714     14717     14720
     14716     14714     14717     14718     14716     14714     14717     14719
     14716     14714     14717     14720     14717     14720     14723     14724
     14717     14720     14723     14725     14717     14720     14723     14726
     14718     14717     14720     14721     14718     14717     14720     14722
     14718     14717     14720     14723     14719     14717     14720     14721
     14719     14717     14720     14722     14719     14717     14720     14723
     14720     14723     14726     14727     14720     14723     14726     14728
     14720     14723     14726     14729     14721     14720     14723     14724
     14721     14720     14723     14725     14721     14720     14723     14726
     14722     14720     14723     14724     14722     14720     14723     14725
     14722     14720     14723     14726     14724     14723     14726     14727
     14724     14723     14726     14728     14724     14723     14726     14729
     14725     14723     14726     14727     14725     14723     14726     14728
     14725     14723     14726     14729     14730     14731     14746     14747
     14730     14731     14746     14748     14730     14731     14746     14752
     14731     14730     14734     14735     14731     14730     14734     14736
     14731     14730     14734     14737     14731     14730     14738     14739
     14731     14730     14738     14740     14731     14730     14738     14741
     14731     14730     14742     14743     14731     14730     14742     14744
     14731     14730     14742     14745     14731     14746     14752     14749
     14732     14731     14730     14734     14732     14731     14730     14738
     14732     14731     14730     14742     14732     14731     14746     14747
     14732     14731     14746     14748     14732     14731     14746     14752
     14733     14731     14730     14734     14733     14731     14730     14738
     14733     14731     14730     14742     14733     14731     14746     14747
     14733     14731     14746     14748     14733     14731     14746     14752
     14734     14730     14731     14746     14734     14730     14738     14739
     14734     14730     14738     14740     14734     14730     14738     14741
     14734     14730     14742     14743     14734     14730     14742     14744
     14734     14730     14742     14745     14735     14734     14730     14738
     14735     14734     14730     14742     14736     14734     14730     14738
     14736     14734     14730     14742     14737     14734     14730     14738
     14737     14734     14730     14742     14738     14730     14731     14746
     14738     14730     14742     14743     14738     14730     14742     14744
     14738     14730     14742     14745     14739     14738     14730     14742
     14740     14738     14730     14742     14741     14738     14730     14742
     14742     14730     14731     14746     14746     14752     14749     14750
     14746     14752     14749     14751     14746     14752     14749     14753
     14747     14746     14752     14749     14748     14746     14752     14749
     14749     14753     14754     14755     14749     14753     14754     14756
     14749     14753     14754     14757     14750     14749     14753     14754
     14751     14749     14753     14754     14752     14749     14753     14754
     14753     14754     14757     14758     14753     14754     14757     14759
     14753     14754     14757     14765     14754     14757     14759     14760
     14754     14757     14765     14766     14754     14757     14765     14767
     14754     14757     14765     14768     14755     14754     14757     14758
     14755     14754     14757     14759     14755     14754     14757     14765
     14756     14754     14757     14758     14756     14754     14757     14759
     14756     14754     14757     14765     14757     14759     14760     14761
     14757     14759     14760     14762     14757     14765     14768     14769
     14758     14757     14759     14760     14758     14757     14765     14766
     14758     14757     14765     14767     14758     14757     14765     14768
     14759     14757     14765     14766     14759     14757     14765     14767
     14759     14757     14765     14768     14759     14760     14762     14763
     14759     14760     14762     14764     14759     14760     14762     14774
     14760     14759     14757     14765     14760     14762     14774     14775
     14760     14762     14774     14776     14760     14762     14774     14777
     14761     14760     14762     14763     14761     14760     14762     14764
     14761     14760     14762     14774     14762     14774     14777     14778
     14762     14774     14777     14779     14762     14774     14777     14780
     14763     14762     14774     14775     14763     14762     14774     14776
     14763     14762     14774     14777     14764     14762     14774     14775
     14764     14762     14774     14776     14764     14762     14774     14777
     14765     14768     14769     14770     14765     14768     14769     14771
     14766     14765     14768     14769     14767     14765     14768     14769
     14768     14769     14771     14772     14768     14769     14771     14773
     14768     14769     14771     14821     14769     14771     14821     14822
     14769     14771     14821     14823     14769     14771     14821     14824
     14770     14769     14771     14772     14770     14769     14771     14773
     14770     14769     14771     14821     14771     14821     14824     14825
     14771     14821     14824     14826     14771     14821     14824     14827
     14772     14771     14821     14822     14772     14771     14821     14823
     14772     14771     14821     14824     14773     14771     14821     14822
     14773     14771     14821     14823     14773     14771     14821     14824
     14774     14777     14780     14781     14774     14777     14780     14782
     14774     14777     14780     14783     14775     14774     14777     14778
     14775     14774     14777     14779     14775     14774     14777     14780
     14776     14774     14777     14778     14776     14774     14777     14779
     14776     14774     14777     14780     14777     14780     14783     14784
     14777     14780     14783     14785     14777     14780     14783     14786
     14778     14777     14780     14781     14778     14777     14780     14782
     14778     14777     14780     14783     14779     14777     14780     14781
     14779     14777     14780     14782     14779     14777     14780     14783
     14780     14783     14786     14787     14780     14783     14786     14788
     14780     14783     14786     14789     14781     14780     14783     14784
     14781     14780     14783     14785     14781     14780     14783     14786
     14782     14780     14783     14784     14782     14780     14783     14785
     14782     14780     14783     14786     14783     14786     14789     14790
     14783     14786     14789     14791     14783     14786     14789     14792
     14784     14783     14786     14787     14784     14783     14786     14788
     14784     14783     14786     14789     14785     14783     14786     14787
     14785     14783     14786     14788     14785     14783     14786     14789
     14786     14789     14792     14793     14786     14789     14792     14794
     14787     14786     14789     14790     14787     14786     14789     14791
     14787     14786     14789     14792     14788     14786     14789     14790
     14788     14786     14789     14791     14788     14786     14789     14792
     14789     14792     14794     14795     14789     14792     14794     14796
     14790     14789     14792     14793     14790     14789     14792     14794
     14791     14789     14792     14793     14791     14789     14792     14794
     14792     14794     14796     14797     14792     14794     14796     14798
     14792     14794     14796     14799     14793     14792     14794     14795
     14793     14792     14794     14796     14794     14796     14799     14800
     14794     14796     14799     14801     14794     14796     14799     14802
     14795     14794     14796     14797     14795     14794     14796     14798
     14795     14794     14796     14799     14796     14799     14802     14803
     14796     14799     14802     14804     14796     14799     14802     14805
     14797     14796     14799     14800     14797     14796     14799     14801
     14797     14796     14799     14802     14798     14796     14799     14800
     14798     14796     14799     14801     14798     14796     14799     14802
     14799     14802     14805     14806     14799     14802     14805     14807
     14799     14802     14805     14808     14800     14799     14802     14803
     14800     14799     14802     14804     14800     14799     14802     14805
     14801     14799     14802     14803     14801     14799     14802     14804
     14801     14799     14802     14805     14802     14805     14808     14809
     14802     14805     14808     14810     14802     14805     14808     14811
     14803     14802     14805     14806     14803     14802     14805     14807
     14803     14802     14805     14808     14804     14802     14805     14806
     14804     14802     14805     14807     14804     14802     14805     14808
     14805     14808     14811     14812     14805     14808     14811     14813
     14805     14808     14811     14814     14806     14805     14808     14809
     14806     14805     14808     14810     14806     14805     14808     14811
     14807     14805     14808     14809     14807     14805     14808     14810
     14807     14805     14808     14811     14808     14811     14814     14815
     14808     14811     14814     14816     14808     14811     14814     14817
     14809     14808     14811     14812     14809     14808     14811     14813
     14809     14808     14811     14814     14810     14808     14811     14812
     14810     14808     14811     14813     14810     14808     14811     14814
     14811     14814     14817     14818     14811     14814     14817     14819
     14811     14814     14817     14820     14812     14811     14814     14815
     14812     14811     14814     14816     14812     14811     14814     14817
     14813     14811     14814     14815     14813     14811     14814     14816
     14813     14811     14814     14817     14815     14814     14817     14818
     14815     14814     14817     14819     14815     14814     14817     14820
     14816     14814     14817     14818     14816     14814     14817     14819
     14816     14814     14817     14820     14821     14824     14827     14828
     14821     14824     14827     14829     14821     14824     14827     14830
     14822     14821     14824     14825     14822     14821     14824     14826
     14822     14821     14824     14827     14823     14821     14824     14825
     14823     14821     14824     14826     14823     14821     14824     14827
     14824     14827     14830     14831     14824     14827     14830     14832
     14824     14827     14830     14833     14825     14824     14827     14828
     14825     14824     14827     14829     14825     14824     14827     14830
     14826     14824     14827     14828     14826     14824     14827     14829
     14826     14824     14827     14830     14827     14830     14833     14834
     14827     14830     14833     14835     14827     14830     14833     14836
     14828     14827     14830     14831     14828     14827     14830     14832
     14828     14827     14830     14833     14829     14827     14830     14831
     14829     14827     14830     14832     14829     14827     14830     14833
     14830     14833     14836     14837     14830     14833     14836     14838
     14830     14833     14836     14839     14831     14830     14833     14834
     14831     14830     14833     14835     14831     14830     14833     14836
     14832     14830     14833     14834     14832     14830     14833     14835
     14832     14830     14833     14836     14833     14836     14839     14840
     14833     14836     14839     14841     14833     14836     14839     14842
     14834     14833     14836     14837     14834     14833     14836     14838
     14834     14833     14836     14839     14835     14833     14836     14837
     14835     14833     14836     14838     14835     14833     14836     14839
     14836     14839     14842     14843     14836     14839     14842     14844
     14836     14839     14842     14845     14837     14836     14839     14840
     14837     14836     14839     14841     14837     14836     14839     14842
     14838     14836     14839     14840     14838     14836     14839     14841
     14838     14836     14839     14842     14839     14842     14845     14846
     14839     14842     14845     14847     14839     14842     14845     14848
     14840     14839     14842     14843     14840     14839     14842     14844
     14840     14839     14842     14845     14841     14839     14842     14843
     14841     14839     14842     14844     14841     14839     14842     14845
     14842     14845     14848     14849     14842     14845     14848     14850
     14842     14845     14848     14851     14843     14842     14845     14846
     14843     14842     14845     14847     14843     14842     14845     14848
     14844     14842     14845     14846     14844     14842     14845     14847
     14844     14842     14845     14848     14845     14848     14851     14852
     14845     14848     14851     14853     14845     14848     14851     14854
     14846     14845     14848     14849     14846     14845     14848     14850
     14846     14845     14848     14851     14847     14845     14848     14849
     14847     14845     14848     14850     14847     14845     14848     14851
     14848     14851     14854     14855     14848     14851     14854     14856
     14848     14851     14854     14857     14849     14848     14851     14852
     14849     14848     14851     14853     14849     14848     14851     14854
     14850     14848     14851     14852     14850     14848     14851     14853
     14850     14848     14851     14854     14851     14854     14857     14858
     14851     14854     14857     14859     14851     14854     14857     14860
     14852     14851     14854     14855     14852     14851     14854     14856
     14852     14851     14854     14857     14853     14851     14854     14855
     14853     14851     14854     14856     14853     14851     14854     14857
     14854     14857     14860     14861     14854     14857     14860     14862
     14854     14857     14860     14863     14855     14854     14857     14858
     14855     14854     14857     14859     14855     14854     14857     14860
     14856     14854     14857     14858     14856     14854     14857     14859
     14856     14854     14857     14860     14858     14857     14860     14861
     14858     14857     14860     14862     14858     14857     14860     14863
     14859     14857     14860     14861     14859     14857     14860     14862
     14859     14857     14860     14863     14864     14868     14870     14871
     14864     14868     14870     14872     14864     14868     14873     14874
     14864     14868     14873     14875     14864     14868     14873     14879
     14865     14864     14868     14869     14865     14864     14868     14870
     14865     14864     14868     14873     14866     14864     14868     14869
     14866     14864     14868     14870     14866     14864     14868     14873
     14867     14864     14868     14869     14867     14864     14868     14870
     14867     14864     14868     14873     14868     14873     14879     14876
     14869     14868     14870     14871     14869     14868     14870     14872
     14869     14868     14873     14874     14869     14868     14873     14875
     14869     14868     14873     14879     14870     14868     14873     14874
     14870     14868     14873     14875     14870     14868     14873     14879
     14871     14870     14868     14873     14872     14870     14868     14873
     14873     14879     14876     14877     14873     14879     14876     14878
     14873     14879     14876     14880     14874     14873     14879     14876
     14875     14873     14879     14876     14876     14880     14881     14882
     14876     14880     14881     14883     14876     14880     14881     14884
     14877     14876     14880     14881     14878     14876     14880     14881
     14879     14876     14880     14881     14880     14881     14884     14885
     14880     14881     14884     14886     14880     14881     14884     14892
     14881     14884     14886     14887     14881     14884     14892     14893
     14881     14884     14892     14894     14881     14884     14892     14895
     14882     14881     14884     14885     14882     14881     14884     14886
     14882     14881     14884     14892     14883     14881     14884     14885
     14883     14881     14884     14886     14883     14881     14884     14892
     14884     14886     14887     14888     14884     14886     14887     14889
     14884     14892     14895     14896     14885     14884     14886     14887
     14885     14884     14892     14893     14885     14884     14892     14894
     14885     14884     14892     14895     14886     14884     14892     14893
     14886     14884     14892     14894     14886     14884     14892     14895
     14886     14887     14889     14890     14886     14887     14889     14891
     14886     14887     14889     14901     14887     14886     14884     14892
     14887     14889     14901     14902     14887     14889     14901     14903
     14887     14889     14901     14904     14888     14887     14889     14890
     14888     14887     14889     14891     14888     14887     14889     14901
     14889     14901     14904     14905     14889     14901     14904     14906
     14889     14901     14904     14907     14890     14889     14901     14902
     14890     14889     14901     14903     14890     14889     14901     14904
     14891     14889     14901     14902     14891     14889     14901     14903
     14891     14889     14901     14904     14892     14895     14896     14897
     14892     14895     14896     14898     14893     14892     14895     14896
     14894     14892     14895     14896     14895     14896     14898     14899
     14895     14896     14898     14900     14895     14896     14898     14948
     14896     14898     14948     14949     14896     14898     14948     14950
     14896     14898     14948     14951     14897     14896     14898     14899
     14897     14896     14898     14900     14897     14896     14898     14948
     14898     14948     14951     14952     14898     14948     14951     14953
     14898     14948     14951     14954     14899     14898     14948     14949
     14899     14898     14948     14950     14899     14898     14948     14951
     14900     14898     14948     14949     14900     14898     14948     14950
     14900     14898     14948     14951     14901     14904     14907     14908
     14901     14904     14907     14909     14901     14904     14907     14910
     14902     14901     14904     14905     14902     14901     14904     14906
     14902     14901     14904     14907     14903     14901     14904     14905
     14903     14901     14904     14906     14903     14901     14904     14907
     14904     14907     14910     14911     14904     14907     14910     14912
     14904     14907     14910     14913     14905     14904     14907     14908
     14905     14904     14907     14909     14905     14904     14907     14910
     14906     14904     14907     14908     14906     14904     14907     14909
     14906     14904     14907     14910     14907     14910     14913     14914
     14907     14910     14913     14915     14907     14910     14913     14916
     14908     14907     14910     14911     14908     14907     14910     14912
     14908     14907     14910     14913     14909     14907     14910     14911
     14909     14907     14910     14912     14909     14907     14910     14913
     14910     14913     14916     14917     14910     14913     14916     14918
     14910     14913     14916     14919     14911     14910     14913     14914
     14911     14910     14913     14915     14911     14910     14913     14916
     14912     14910     14913     14914     14912     14910     14913     14915
     14912     14910     14913     14916     14913     14916     14919     14920
     14913     14916     14919     14921     14914     14913     14916     14917
     14914     14913     14916     14918     14914     14913     14916     14919
     14915     14913     14916     14917     14915     14913     14916     14918
     14915     14913     14916     14919     14916     14919     14921     14922
     14916     14919     14921     14923     14917     14916     14919     14920
     14917     14916     14919     14921     14918     14916     14919     14920
     14918     14916     14919     14921     14919     14921     14923     14924
     14919     14921     14923     14925     14919     14921     14923     14926
     14920     14919     14921     14922     14920     14919     14921     14923
     14921     14923     14926     14927     14921     14923     14926     14928
     14921     14923     14926     14929     14922     14921     14923     14924
     14922     14921     14923     14925     14922     14921     14923     14926
     14923     14926     14929     14930     14923     14926     14929     14931
     14923     14926     14929     14932     14924     14923     14926     14927
     14924     14923     14926     14928     14924     14923     14926     14929
     14925     14923     14926     14927     14925     14923     14926     14928
     14925     14923     14926     14929     14926     14929     14932     14933
     14926     14929     14932     14934     14926     14929     14932     14935
     14927     14926     14929     14930     14927     14926     14929     14931
     14927     14926     14929     14932     14928     14926     14929     14930
     14928     14926     14929     14931     14928     14926     14929     14932
     14929     14932     14935     14936     14929     14932     14935     14937
     14929     14932     14935     14938     14930     14929     14932     14933
     14930     14929     14932     14934     14930     14929     14932     14935
     14931     14929     14932     14933     14931     14929     14932     14934
     14931     14929     14932     14935     14932     14935     14938     14939
     14932     14935     14938     14940     14932     14935     14938     14941
     14933     14932     14935     14936     14933     14932     14935     14937
     14933     14932     14935     14938     14934     14932     14935     14936
     14934     14932     14935     14937     14934     14932     14935     14938
     14935     14938     14941     14942     14935     14938     14941     14943
     14935     14938     14941     14944     14936     14935     14938     14939
     14936     14935     14938     14940     14936     14935     14938     14941
     14937     14935     14938     14939     14937     14935     14938     14940
     14937     14935     14938     14941     14938     14941     14944     14945
     14938     14941     14944     14946     14938     14941     14944     14947
     14939     14938     14941     14942     14939     14938     14941     14943
     14939     14938     14941     14944     14940     14938     14941     14942
     14940     14938     14941     14943     14940     14938     14941     14944
     14942     14941     14944     14945     14942     14941     14944     14946
     14942     14941     14944     14947     14943     14941     14944     14945
     14943     14941     14944     14946     14943     14941     14944     14947
     14948     14951     14954     14955     14948     14951     14954     14956
     14948     14951     14954     14957     14949     14948     14951     14952
     14949     14948     14951     14953     14949     14948     14951     14954
     14950     14948     14951     14952     14950     14948     14951     14953
     14950     14948     14951     14954     14951     14954     14957     14958
     14951     14954     14957     14959     14951     14954     14957     14960
     14952     14951     14954     14955     14952     14951     14954     14956
     14952     14951     14954     14957     14953     14951     14954     14955
     14953     14951     14954     14956     14953     14951     14954     14957
     14954     14957     14960     14961     14954     14957     14960     14962
     14954     14957     14960     14963     14955     14954     14957     14958
     14955     14954     14957     14959     14955     14954     14957     14960
     14956     14954     14957     14958     14956     14954     14957     14959
     14956     14954     14957     14960     14957     14960     14963     14964
     14957     14960     14963     14965     14957     14960     14963     14966
     14958     14957     14960     14961     14958     14957     14960     14962
     14958     14957     14960     14963     14959     14957     14960     14961
     14959     14957     14960     14962     14959     14957     14960     14963
     14960     14963     14966     14967     14960     14963     14966     14968
     14960     14963     14966     14969     14961     14960     14963     14964
     14961     14960     14963     14965     14961     14960     14963     14966
     14962     14960     14963     14964     14962     14960     14963     14965
     14962     14960     14963     14966     14963     14966     14969     14970
     14963     14966     14969     14971     14963     14966     14969     14972
     14964     14963     14966     14967     14964     14963     14966     14968
     14964     14963     14966     14969     14965     14963     14966     14967
     14965     14963     14966     14968     14965     14963     14966     14969
     14966     14969     14972     14973     14966     14969     14972     14974
     14966     14969     14972     14975     14967     14966     14969     14970
     14967     14966     14969     14971     14967     14966     14969     14972
     14968     14966     14969     14970     14968     14966     14969     14971
     14968     14966     14969     14972     14969     14972     14975     14976
     14969     14972     14975     14977     14969     14972     14975     14978
     14970     14969     14972     14973     14970     14969     14972     14974
     14970     14969     14972     14975     14971     14969     14972     14973
     14971     14969     14972     14974     14971     14969     14972     14975
     14972     14975     14978     14979     14972     14975     14978     14980
     14972     14975     14978     14981     14973     14972     14975     14976
     14973     14972     14975     14977     14973     14972     14975     14978
     14974     14972     14975     14976     14974     14972     14975     14977
     14974     14972     14975     14978     14975     14978     14981     14982
     14975     14978     14981     14983     14975     14978     14981     14984
     14976     14975     14978     14979     14976     14975     14978     14980
     14976     14975     14978     14981     14977     14975     14978     14979
     14977     14975     14978     14980     14977     14975     14978     14981
     14978     14981     14984     14985     14978     14981     14984     14986
     14978     14981     14984     14987     14979     14978     14981     14982
     14979     14978     14981     14983     14979     14978     14981     14984
     14980     14978     14981     14982     14980     14978     14981     14983
     14980     14978     14981     14984     14981     14984     14987     14988
     14981     14984     14987     14989     14981     14984     14987     14990
     14982     14981     14984     14985     14982     14981     14984     14986
     14982     14981     14984     14987     14983     14981     14984     14985
     14983     14981     14984     14986     14983     14981     14984     14987
     14985     14984     14987     14988     14985     14984     14987     14989
     14985     14984     14987     14990     14986     14984     14987     14988
     14986     14984     14987     14989     14986     14984     14987     14990
     14991     14992     15007     15008     14991     14992     15007     15009
     14991     14992     15007     15013     14992     14991     14995     14996
     14992     14991     14995     14997     14992     14991     14995     14998
     14992     14991     14999     15000     14992     14991     14999     15001
     14992     14991     14999     15002     14992     14991     15003     15004
     14992     14991     15003     15005     14992     14991     15003     15006
     14992     15007     15013     15010     14993     14992     14991     14995
     14993     14992     14991     14999     14993     14992     14991     15003
     14993     14992     15007     15008     14993     14992     15007     15009
     14993     14992     15007     15013     14994     14992     14991     14995
     14994     14992     14991     14999     14994     14992     14991     15003
     14994     14992     15007     15008     14994     14992     15007     15009
     14994     14992     15007     15013     14995     14991     14992     15007
     14995     14991     14999     15000     14995     14991     14999     15001
     14995     14991     14999     15002     14995     14991     15003     15004
     14995     14991     15003     15005     14995     14991     15003     15006
     14996     14995     14991     14999     14996     14995     14991     15003
     14997     14995     14991     14999     14997     14995     14991     15003
     14998     14995     14991     14999     14998     14995     14991     15003
     14999     14991     14992     15007     14999     14991     15003     15004
     14999     14991     15003     15005     14999     14991     15003     15006
     15000     14999     14991     15003     15001     14999     14991     15003
     15002     14999     14991     15003     15003     14991     14992     15007
     15007     15013     15010     15011     15007     15013     15010     15012
     15007     15013     15010     15014     15008     15007     15013     15010
     15009     15007     15013     15010     15010     15014     15015     15016
     15010     15014     15015     15017     15010     15014     15015     15018
     15011     15010     15014     15015     15012     15010     15014     15015
     15013     15010     15014     15015     15014     15015     15018     15019
     15014     15015     15018     15020     15014     15015     15018     15026
     15015     15018     15020     15021     15015     15018     15026     15027
     15015     15018     15026     15028     15015     15018     15026     15029
     15016     15015     15018     15019     15016     15015     15018     15020
     15016     15015     15018     15026     15017     15015     15018     15019
     15017     15015     15018     15020     15017     15015     15018     15026
     15018     15020     15021     15022     15018     15020     15021     15023
     15018     15026     15029     15030     15019     15018     15020     15021
     15019     15018     15026     15027     15019     15018     15026     15028
     15019     15018     15026     15029     15020     15018     15026     15027
     15020     15018     15026     15028     15020     15018     15026     15029
     15020     15021     15023     15024     15020     15021     15023     15025
     15020     15021     15023     15035     15021     15020     15018     15026
     15021     15023     15035     15036     15021     15023     15035     15037
     15021     15023     15035     15038     15022     15021     15023     15024
     15022     15021     15023     15025     15022     15021     15023     15035
     15023     15035     15038     15039     15023     15035     15038     15040
     15023     15035     15038     15041     15024     15023     15035     15036
     15024     15023     15035     15037     15024     15023     15035     15038
     15025     15023     15035     15036     15025     15023     15035     15037
     15025     15023     15035     15038     15026     15029     15030     15031
     15026     15029     15030     15032     15027     15026     15029     15030
     15028     15026     15029     15030     15029     15030     15032     15033
     15029     15030     15032     15034     15029     15030     15032     15082
     15030     15032     15082     15083     15030     15032     15082     15084
     15030     15032     15082     15085     15031     15030     15032     15033
     15031     15030     15032     15034     15031     15030     15032     15082
     15032     15082     15085     15086     15032     15082     15085     15087
     15032     15082     15085     15088     15033     15032     15082     15083
     15033     15032     15082     15084     15033     15032     15082     15085
     15034     15032     15082     15083     15034     15032     15082     15084
     15034     15032     15082     15085     15035     15038     15041     15042
     15035     15038     15041     15043     15035     15038     15041     15044
     15036     15035     15038     15039     15036     15035     15038     15040
     15036     15035     15038     15041     15037     15035     15038     15039
     15037     15035     15038     15040     15037     15035     15038     15041
     15038     15041     15044     15045     15038     15041     15044     15046
     15038     15041     15044     15047     15039     15038     15041     15042
     15039     15038     15041     15043     15039     15038     15041     15044
     15040     15038     15041     15042     15040     15038     15041     15043
     15040     15038     15041     15044     15041     15044     15047     15048
     15041     15044     15047     15049     15041     15044     15047     15050
     15042     15041     15044     15045     15042     15041     15044     15046
     15042     15041     15044     15047     15043     15041     15044     15045
     15043     15041     15044     15046     15043     15041     15044     15047
     15044     15047     15050     15051     15044     15047     15050     15052
     15044     15047     15050     15053     15045     15044     15047     15048
     15045     15044     15047     15049     15045     15044     15047     15050
     15046     15044     15047     15048     15046     15044     15047     15049
     15046     15044     15047     15050     15047     15050     15053     15054
     15047     15050     15053     15055     15048     15047     15050     15051
     15048     15047     15050     15052     15048     15047     15050     15053
     15049     15047     15050     15051     15049     15047     15050     15052
     15049     15047     15050     15053     15050     15053     15055     15056
     15050     15053     15055     15057     15051     15050     15053     15054
     15051     15050     15053     15055     15052     15050     15053     15054
     15052     15050     15053     15055     15053     15055     15057     15058
     15053     15055     15057     15059     15053     15055     15057     15060
     15054     15053     15055     15056     15054     15053     15055     15057
     15055     15057     15060     15061     15055     15057     15060     15062
     15055     15057     15060     15063     15056     15055     15057     15058
     15056     15055     15057     15059     15056     15055     15057     15060
     15057     15060     15063     15064     15057     15060     15063     15065
     15057     15060     15063     15066     15058     15057     15060     15061
     15058     15057     15060     15062     15058     15057     15060     15063
     15059     15057     15060     15061     15059     15057     15060     15062
     15059     15057     15060     15063     15060     15063     15066     15067
     15060     15063     15066     15068     15060     15063     15066     15069
     15061     15060     15063     15064     15061     15060     15063     15065
     15061     15060     15063     15066     15062     15060     15063     15064
     15062     15060     15063     15065     15062     15060     15063     15066
     15063     15066     15069     15070     15063     15066     15069     15071
     15063     15066     15069     15072     15064     15063     15066     15067
     15064     15063     15066     15068     15064     15063     15066     15069
     15065     15063     15066     15067     15065     15063     15066     15068
     15065     15063     15066     15069     15066     15069     15072     15073
     15066     15069     15072     15074     15066     15069     15072     15075
     15067     15066     15069     15070     15067     15066     15069     15071
     15067     15066     15069     15072     15068     15066     15069     15070
     15068     15066     15069     15071     15068     15066     15069     15072
     15069     15072     15075     15076     15069     15072     15075     15077
     15069     15072     15075     15078     15070     15069     15072     15073
     15070     15069     15072     15074     15070     15069     15072     15075
     15071     15069     15072     15073     15071     15069     15072     15074
     15071     15069     15072     15075     15072     15075     15078     15079
     15072     15075     15078     15080     15072     15075     15078     15081
     15073     15072     15075     15076     15073     15072     15075     15077
     15073     15072     15075     15078     15074     15072     15075     15076
     15074     15072     15075     15077     15074     15072     15075     15078
     15076     15075     15078     15079     15076     15075     15078     15080
     15076     15075     15078     15081     15077     15075     15078     15079
     15077     15075     15078     15080     15077     15075     15078     15081
     15082     15085     15088     15089     15082     15085     15088     15090
     15082     15085     15088     15091     15083     15082     15085     15086
     15083     15082     15085     15087     15083     15082     15085     15088
     15084     15082     15085     15086     15084     15082     15085     15087
     15084     15082     15085     15088     15085     15088     15091     15092
     15085     15088     15091     15093     15085     15088     15091     15094
     15086     15085     15088     15089     15086     15085     15088     15090
     15086     15085     15088     15091     15087     15085     15088     15089
     15087     15085     15088     15090     15087     15085     15088     15091
     15088     15091     15094     15095     15088     15091     15094     15096
     15088     15091     15094     15097     15089     15088     15091     15092
     15089     15088     15091     15093     15089     15088     15091     15094
     15090     15088     15091     15092     15090     15088     15091     15093
     15090     15088     15091     15094     15091     15094     15097     15098
     15091     15094     15097     15099     15091     15094     15097     15100
     15092     15091     15094     15095     15092     15091     15094     15096
     15092     15091     15094     15097     15093     15091     15094     15095
     15093     15091     15094     15096     15093     15091     15094     15097
     15094     15097     15100     15101     15094     15097     15100     15102
     15094     15097     15100     15103     15095     15094     15097     15098
     15095     15094     15097     15099     15095     15094     15097     15100
     15096     15094     15097     15098     15096     15094     15097     15099
     15096     15094     15097     15100     15097     15100     15103     15104
     15097     15100     15103     15105     15097     15100     15103     15106
     15098     15097     15100     15101     15098     15097     15100     15102
     15098     15097     15100     15103     15099     15097     15100     15101
     15099     15097     15100     15102     15099     15097     15100     15103
     15100     15103     15106     15107     15100     15103     15106     15108
     15100     15103     15106     15109     15101     15100     15103     15104
     15101     15100     15103     15105     15101     15100     15103     15106
     15102     15100     15103     15104     15102     15100     15103     15105
     15102     15100     15103     15106     15103     15106     15109     15110
     15103     15106     15109     15111     15103     15106     15109     15112
     15104     15103     15106     15107     15104     15103     15106     15108
     15104     15103     15106     15109     15105     15103     15106     15107
     15105     15103     15106     15108     15105     15103     15106     15109
     15106     15109     15112     15113     15106     15109     15112     15114
     15106     15109     15112     15115     15107     15106     15109     15110
     15107     15106     15109     15111     15107     15106     15109     15112
     15108     15106     15109     15110     15108     15106     15109     15111
     15108     15106     15109     15112     15109     15112     15115     15116
     15109     15112     15115     15117     15109     15112     15115     15118
     15110     15109     15112     15113     15110     15109     15112     15114
     15110     15109     15112     15115     15111     15109     15112     15113
     15111     15109     15112     15114     15111     15109     15112     15115
     15112     15115     15118     15119     15112     15115     15118     15120
     15112     15115     15118     15121     15113     15112     15115     15116
     15113     15112     15115     15117     15113     15112     15115     15118
     15114     15112     15115     15116     15114     15112     15115     15117
     15114     15112     15115     15118     15115     15118     15121     15122
     15115     15118     15121     15123     15115     15118     15121     15124
     15116     15115     15118     15119     15116     15115     15118     15120
     15116     15115     15118     15121     15117     15115     15118     15119
     15117     15115     15118     15120     15117     15115     15118     15121
     15119     15118     15121     15122     15119     15118     15121     15123
     15119     15118     15121     15124     15120     15118     15121     15122
     15120     15118     15121     15123     15120     15118     15121     15124
     15125     15126     15141     15142     15125     15126     15141     15143
     15125     15126     15141     15147     15126     15125     15129     15130
     15126     15125     15129     15131     15126     15125     15129     15132
     15126     15125     15133     15134     15126     15125     15133     15135
     15126     15125     15133     15136     15126     15125     15137     15138
     15126     15125     15137     15139     15126     15125     15137     15140
     15126     15141     15147     15144     15127     15126     15125     15129
     15127     15126     15125     15133     15127     15126     15125     15137
     15127     15126     15141     15142     15127     15126     15141     15143
     15127     15126     15141     15147     15128     15126     15125     15129
     15128     15126     15125     15133     15128     15126     15125     15137
     15128     15126     15141     15142     15128     15126     15141     15143
     15128     15126     15141     15147     15129     15125     15126     15141
     15129     15125     15133     15134     15129     15125     15133     15135
     15129     15125     15133     15136     15129     15125     15137     15138
     15129     15125     15137     15139     15129     15125     15137     15140
     15130     15129     15125     15133     15130     15129     15125     15137
     15131     15129     15125     15133     15131     15129     15125     15137
     15132     15129     15125     15133     15132     15129     15125     15137
     15133     15125     15126     15141     15133     15125     15137     15138
     15133     15125     15137     15139     15133     15125     15137     15140
     15134     15133     15125     15137     15135     15133     15125     15137
     15136     15133     15125     15137     15137     15125     15126     15141
     15141     15147     15144     15145     15141     15147     15144     15146
     15141     15147     15144     15148     15142     15141     15147     15144
     15143     15141     15147     15144     15144     15148     15149     15150
     15144     15148     15149     15151     15144     15148     15149     15152
     15145     15144     15148     15149     15146     15144     15148     15149
     15147     15144     15148     15149     15148     15149     15152     15153
     15148     15149     15152     15154     15148     15149     15152     15160
     15149     15152     15154     15155     15149     15152     15160     15161
     15149     15152     15160     15162     15149     15152     15160     15163
     15150     15149     15152     15153     15150     15149     15152     15154
     15150     15149     15152     15160     15151     15149     15152     15153
     15151     15149     15152     15154     15151     15149     15152     15160
     15152     15154     15155     15156     15152     15154     15155     15157
     15152     15160     15163     15164     15153     15152     15154     15155
     15153     15152     15160     15161     15153     15152     15160     15162
     15153     15152     15160     15163     15154     15152     15160     15161
     15154     15152     15160     15162     15154     15152     15160     15163
     15154     15155     15157     15158     15154     15155     15157     15159
     15154     15155     15157     15169     15155     15154     15152     15160
     15155     15157     15169     15170     15155     15157     15169     15171
     15155     15157     15169     15172     15156     15155     15157     15158
     15156     15155     15157     15159     15156     15155     15157     15169
     15157     15169     15172     15173     15157     15169     15172     15174
     15157     15169     15172     15175     15158     15157     15169     15170
     15158     15157     15169     15171     15158     15157     15169     15172
     15159     15157     15169     15170     15159     15157     15169     15171
     15159     15157     15169     15172     15160     15163     15164     15165
     15160     15163     15164     15166     15161     15160     15163     15164
     15162     15160     15163     15164     15163     15164     15166     15167
     15163     15164     15166     15168     15163     15164     15166     15216
     15164     15166     15216     15217     15164     15166     15216     15218
     15164     15166     15216     15219     15165     15164     15166     15167
     15165     15164     15166     15168     15165     15164     15166     15216
     15166     15216     15219     15220     15166     15216     15219     15221
     15166     15216     15219     15222     15167     15166     15216     15217
     15167     15166     15216     15218     15167     15166     15216     15219
     15168     15166     15216     15217     15168     15166     15216     15218
     15168     15166     15216     15219     15169     15172     15175     15176
     15169     15172     15175     15177     15169     15172     15175     15178
     15170     15169     15172     15173     15170     15169     15172     15174
     15170     15169     15172     15175     15171     15169     15172     15173
     15171     15169     15172     15174     15171     15169     15172     15175
     15172     15175     15178     15179     15172     15175     15178     15180
     15172     15175     15178     15181     15173     15172     15175     15176
     15173     15172     15175     15177     15173     15172     15175     15178
     15174     15172     15175     15176     15174     15172     15175     15177
     15174     15172     15175     15178     15175     15178     15181     15182
     15175     15178     15181     15183     15175     15178     15181     15184
     15176     15175     15178     15179     15176     15175     15178     15180
     15176     15175     15178     15181     15177     15175     15178     15179
     15177     15175     15178     15180     15177     15175     15178     15181
     15178     15181     15184     15185     15178     15181     15184     15186
     15178     15181     15184     15187     15179     15178     15181     15182
     15179     15178     15181     15183     15179     15178     15181     15184
     15180     15178     15181     15182     15180     15178     15181     15183
     15180     15178     15181     15184     15181     15184     15187     15188
     15181     15184     15187     15189     15182     15181     15184     15185
     15182     15181     15184     15186     15182     15181     15184     15187
     15183     15181     15184     15185     15183     15181     15184     15186
     15183     15181     15184     15187     15184     15187     15189     15190
     15184     15187     15189     15191     15185     15184     15187     15188
     15185     15184     15187     15189     15186     15184     15187     15188
     15186     15184     15187     15189     15187     15189     15191     15192
     15187     15189     15191     15193     15187     15189     15191     15194
     15188     15187     15189     15190     15188     15187     15189     15191
     15189     15191     15194     15195     15189     15191     15194     15196
     15189     15191     15194     15197     15190     15189     15191     15192
     15190     15189     15191     15193     15190     15189     15191     15194
     15191     15194     15197     15198     15191     15194     15197     15199
     15191     15194     15197     15200     15192     15191     15194     15195
     15192     15191     15194     15196     15192     15191     15194     15197
     15193     15191     15194     15195     15193     15191     15194     15196
     15193     15191     15194     15197     15194     15197     15200     15201
     15194     15197     15200     15202     15194     15197     15200     15203
     15195     15194     15197     15198     15195     15194     15197     15199
     15195     15194     15197     15200     15196     15194     15197     15198
     15196     15194     15197     15199     15196     15194     15197     15200
     15197     15200     15203     15204     15197     15200     15203     15205
     15197     15200     15203     15206     15198     15197     15200     15201
     15198     15197     15200     15202     15198     15197     15200     15203
     15199     15197     15200     15201     15199     15197     15200     15202
     15199     15197     15200     15203     15200     15203     15206     15207
     15200     15203     15206     15208     15200     15203     15206     15209
     15201     15200     15203     15204     15201     15200     15203     15205
     15201     15200     15203     15206     15202     15200     15203     15204
     15202     15200     15203     15205     15202     15200     15203     15206
     15203     15206     15209     15210     15203     15206     15209     15211
     15203     15206     15209     15212     15204     15203     15206     15207
     15204     15203     15206     15208     15204     15203     15206     15209
     15205     15203     15206     15207     15205     15203     15206     15208
     15205     15203     15206     15209     15206     15209     15212     15213
     15206     15209     15212     15214     15206     15209     15212     15215
     15207     15206     15209     15210     15207     15206     15209     15211
     15207     15206     15209     15212     15208     15206     15209     15210
     15208     15206     15209     15211     15208     15206     15209     15212
     15210     15209     15212     15213     15210     15209     15212     15214
     15210     15209     15212     15215     15211     15209     15212     15213
     15211     15209     15212     15214     15211     15209     15212     15215
     15216     15219     15222     15223     15216     15219     15222     15224
     15216     15219     15222     15225     15217     15216     15219     15220
     15217     15216     15219     15221     15217     15216     15219     15222
     15218     15216     15219     15220     15218     15216     15219     15221
     15218     15216     15219     15222     15219     15222     15225     15226
     15219     15222     15225     15227     15219     15222     15225     15228
     15220     15219     15222     15223     15220     15219     15222     15224
     15220     15219     15222     15225     15221     15219     15222     15223
     15221     15219     15222     15224     15221     15219     15222     15225
     15222     15225     15228     15229     15222     15225     15228     15230
     15222     15225     15228     15231     15223     15222     15225     15226
     15223     15222     15225     15227     15223     15222     15225     15228
     15224     15222     15225     15226     15224     15222     15225     15227
     15224     15222     15225     15228     15225     15228     15231     15232
     15225     15228     15231     15233     15225     15228     15231     15234
     15226     15225     15228     15229     15226     15225     15228     15230
     15226     15225     15228     15231     15227     15225     15228     15229
     15227     15225     15228     15230     15227     15225     15228     15231
     15228     15231     15234     15235     15228     15231     15234     15236
     15228     15231     15234     15237     15229     15228     15231     15232
     15229     15228     15231     15233     15229     15228     15231     15234
     15230     15228     15231     15232     15230     15228     15231     15233
     15230     15228     15231     15234     15231     15234     15237     15238
     15231     15234     15237     15239     15231     15234     15237     15240
     15232     15231     15234     15235     15232     15231     15234     15236
     15232     15231     15234     15237     15233     15231     15234     15235
     15233     15231     15234     15236     15233     15231     15234     15237
     15234     15237     15240     15241     15234     15237     15240     15242
     15234     15237     15240     15243     15235     15234     15237     15238
     15235     15234     15237     15239     15235     15234     15237     15240
     15236     15234     15237     15238     15236     15234     15237     15239
     15236     15234     15237     15240     15237     15240     15243     15244
     15237     15240     15243     15245     15237     15240     15243     15246
     15238     15237     15240     15241     15238     15237     15240     15242
     15238     15237     15240     15243     15239     15237     15240     15241
     15239     15237     15240     15242     15239     15237     15240     15243
     15240     15243     15246     15247     15240     15243     15246     15248
     15240     15243     15246     15249     15241     15240     15243     15244
     15241     15240     15243     15245     15241     15240     15243     15246
     15242     15240     15243     15244     15242     15240     15243     15245
     15242     15240     15243     15246     15243     15246     15249     15250
     15243     15246     15249     15251     15243     15246     15249     15252
     15244     15243     15246     15247     15244     15243     15246     15248
     15244     15243     15246     15249     15245     15243     15246     15247
     15245     15243     15246     15248     15245     15243     15246     15249
     15246     15249     15252     15253     15246     15249     15252     15254
     15246     15249     15252     15255     15247     15246     15249     15250
     15247     15246     15249     15251     15247     15246     15249     15252
     15248     15246     15249     15250     15248     15246     15249     15251
     15248     15246     15249     15252     15249     15252     15255     15256
     15249     15252     15255     15257     15249     15252     15255     15258
     15250     15249     15252     15253     15250     15249     15252     15254
     15250     15249     15252     15255     15251     15249     15252     15253
     15251     15249     15252     15254     15251     15249     15252     15255
     15253     15252     15255     15256     15253     15252     15255     15257
     15253     15252     15255     15258     15254     15252     15255     15256
     15254     15252     15255     15257     15254     15252     15255     15258
     15259     15263     15265     15266     15259     15263     15265     15267
     15259     15263     15268     15269     15259     15263     15268     15270
     15259     15263     15268     15274     15260     15259     15263     15264
     15260     15259     15263     15265     15260     15259     15263     15268
     15261     15259     15263     15264     15261     15259     15263     15265
     15261     15259     15263     15268     15262     15259     15263     15264
     15262     15259     15263     15265     15262     15259     15263     15268
     15263     15268     15274     15271     15264     15263     15265     15266
     15264     15263     15265     15267     15264     15263     15268     15269
     15264     15263     15268     15270     15264     15263     15268     15274
     15265     15263     15268     15269     15265     15263     15268     15270
     15265     15263     15268     15274     15266     15265     15263     15268
     15267     15265     15263     15268     15268     15274     15271     15272
     15268     15274     15271     15273     15268     15274     15271     15275
     15269     15268     15274     15271     15270     15268     15274     15271
     15271     15275     15276     15277     15271     15275     15276     15278
     15271     15275     15276     15279     15272     15271     15275     15276
     15273     15271     15275     15276     15274     15271     15275     15276
     15275     15276     15279     15280     15275     15276     15279     15281
     15275     15276     15279     15287     15276     15279     15281     15282
     15276     15279     15287     15288     15276     15279     15287     15289
     15276     15279     15287     15290     15277     15276     15279     15280
     15277     15276     15279     15281     15277     15276     15279     15287
     15278     15276     15279     15280     15278     15276     15279     15281
     15278     15276     15279     15287     15279     15281     15282     15283
     15279     15281     15282     15284     15279     15287     15290     15291
     15280     15279     15281     15282     15280     15279     15287     15288
     15280     15279     15287     15289     15280     15279     15287     15290
     15281     15279     15287     15288     15281     15279     15287     15289
     15281     15279     15287     15290     15281     15282     15284     15285
     15281     15282     15284     15286     15281     15282     15284     15296
     15282     15281     15279     15287     15282     15284     15296     15297
     15282     15284     15296     15298     15282     15284     15296     15299
     15283     15282     15284     15285     15283     15282     15284     15286
     15283     15282     15284     15296     15284     15296     15299     15300
     15284     15296     15299     15301     15284     15296     15299     15302
     15285     15284     15296     15297     15285     15284     15296     15298
     15285     15284     15296     15299     15286     15284     15296     15297
     15286     15284     15296     15298     15286     15284     15296     15299
     15287     15290     15291     15292     15287     15290     15291     15293
     15288     15287     15290     15291     15289     15287     15290     15291
     15290     15291     15293     15294     15290     15291     15293     15295
     15290     15291     15293     15343     15291     15293     15343     15344
     15291     15293     15343     15345     15291     15293     15343     15346
     15292     15291     15293     15294     15292     15291     15293     15295
     15292     15291     15293     15343     15293     15343     15346     15347
     15293     15343     15346     15348     15293     15343     15346     15349
     15294     15293     15343     15344     15294     15293     15343     15345
     15294     15293     15343     15346     15295     15293     15343     15344
     15295     15293     15343     15345     15295     15293     15343     15346
     15296     15299     15302     15303     15296     15299     15302     15304
     15296     15299     15302     15305     15297     15296     15299     15300
     15297     15296     15299     15301     15297     15296     15299     15302
     15298     15296     15299     15300     15298     15296     15299     15301
     15298     15296     15299     15302     15299     15302     15305     15306
     15299     15302     15305     15307     15299     15302     15305     15308
     15300     15299     15302     15303     15300     15299     15302     15304
     15300     15299     15302     15305     15301     15299     15302     15303
     15301     15299     15302     15304     15301     15299     15302     15305
     15302     15305     15308     15309     15302     15305     15308     15310
     15302     15305     15308     15311     15303     15302     15305     15306
     15303     15302     15305     15307     15303     15302     15305     15308
     15304     15302     15305     15306     15304     15302     15305     15307
     15304     15302     15305     15308     15305     15308     15311     15312
     15305     15308     15311     15313     15305     15308     15311     15314
     15306     15305     15308     15309     15306     15305     15308     15310
     15306     15305     15308     15311     15307     15305     15308     15309
     15307     15305     15308     15310     15307     15305     15308     15311
     15308     15311     15314     15315     15308     15311     15314     15316
     15309     15308     15311     15312     15309     15308     15311     15313
     15309     15308     15311     15314     15310     15308     15311     15312
     15310     15308     15311     15313     15310     15308     15311     15314
     15311     15314     15316     15317     15311     15314     15316     15318
     15312     15311     15314     15315     15312     15311     15314     15316
     15313     15311     15314     15315     15313     15311     15314     15316
     15314     15316     15318     15319     15314     15316     15318     15320
     15314     15316     15318     15321     15315     15314     15316     15317
     15315     15314     15316     15318     15316     15318     15321     15322
     15316     15318     15321     15323     15316     15318     15321     15324
     15317     15316     15318     15319     15317     15316     15318     15320
     15317     15316     15318     15321     15318     15321     15324     15325
     15318     15321     15324     15326     15318     15321     15324     15327
     15319     15318     15321     15322     15319     15318     15321     15323
     15319     15318     15321     15324     15320     15318     15321     15322
     15320     15318     15321     15323     15320     15318     15321     15324
     15321     15324     15327     15328     15321     15324     15327     15329
     15321     15324     15327     15330     15322     15321     15324     15325
     15322     15321     15324     15326     15322     15321     15324     15327
     15323     15321     15324     15325     15323     15321     15324     15326
     15323     15321     15324     15327     15324     15327     15330     15331
     15324     15327     15330     15332     15324     15327     15330     15333
     15325     15324     15327     15328     15325     15324     15327     15329
     15325     15324     15327     15330     15326     15324     15327     15328
     15326     15324     15327     15329     15326     15324     15327     15330
     15327     15330     15333     15334     15327     15330     15333     15335
     15327     15330     15333     15336     15328     15327     15330     15331
     15328     15327     15330     15332     15328     15327     15330     15333
     15329     15327     15330     15331     15329     15327     15330     15332
     15329     15327     15330     15333     15330     15333     15336     15337
     15330     15333     15336     15338     15330     15333     15336     15339
     15331     15330     15333     15334     15331     15330     15333     15335
     15331     15330     15333     15336     15332     15330     15333     15334
     15332     15330     15333     15335     15332     15330     15333     15336
     15333     15336     15339     15340     15333     15336     15339     15341
     15333     15336     15339     15342     15334     15333     15336     15337
     15334     15333     15336     15338     15334     15333     15336     15339
     15335     15333     15336     15337     15335     15333     15336     15338
     15335     15333     15336     15339     15337     15336     15339     15340
     15337     15336     15339     15341     15337     15336     15339     15342
     15338     15336     15339     15340     15338     15336     15339     15341
     15338     15336     15339     15342     15343     15346     15349     15350
     15343     15346     15349     15351     15343     15346     15349     15352
     15344     15343     15346     15347     15344     15343     15346     15348
     15344     15343     15346     15349     15345     15343     15346     15347
     15345     15343     15346     15348     15345     15343     15346     15349
     15346     15349     15352     15353     15346     15349     15352     15354
     15346     15349     15352     15355     15347     15346     15349     15350
     15347     15346     15349     15351     15347     15346     15349     15352
     15348     15346     15349     15350     15348     15346     15349     15351
     15348     15346     15349     15352     15349     15352     15355     15356
     15349     15352     15355     15357     15349     15352     15355     15358
     15350     15349     15352     15353     15350     15349     15352     15354
     15350     15349     15352     15355     15351     15349     15352     15353
     15351     15349     15352     15354     15351     15349     15352     15355
     15352     15355     15358     15359     15352     15355     15358     15360
     15352     15355     15358     15361     15353     15352     15355     15356
     15353     15352     15355     15357     15353     15352     15355     15358
     15354     15352     15355     15356     15354     15352     15355     15357
     15354     15352     15355     15358     15355     15358     15361     15362
     15355     15358     15361     15363     15355     15358     15361     15364
     15356     15355     15358     15359     15356     15355     15358     15360
     15356     15355     15358     15361     15357     15355     15358     15359
     15357     15355     15358     15360     15357     15355     15358     15361
     15358     15361     15364     15365     15358     15361     15364     15366
     15358     15361     15364     15367     15359     15358     15361     15362
     15359     15358     15361     15363     15359     15358     15361     15364
     15360     15358     15361     15362     15360     15358     15361     15363
     15360     15358     15361     15364     15361     15364     15367     15368
     15361     15364     15367     15369     15361     15364     15367     15370
     15362     15361     15364     15365     15362     15361     15364     15366
     15362     15361     15364     15367     15363     15361     15364     15365
     15363     15361     15364     15366     15363     15361     15364     15367
     15364     15367     15370     15371     15364     15367     15370     15372
     15364     15367     15370     15373     15365     15364     15367     15368
     15365     15364     15367     15369     15365     15364     15367     15370
     15366     15364     15367     15368     15366     15364     15367     15369
     15366     15364     15367     15370     15367     15370     15373     15374
     15367     15370     15373     15375     15367     15370     15373     15376
     15368     15367     15370     15371     15368     15367     15370     15372
     15368     15367     15370     15373     15369     15367     15370     15371
     15369     15367     15370     15372     15369     15367     15370     15373
     15370     15373     15376     15377     15370     15373     15376     15378
     15370     15373     15376     15379     15371     15370     15373     15374
     15371     15370     15373     15375     15371     15370     15373     15376
     15372     15370     15373     15374     15372     15370     15373     15375
     15372     15370     15373     15376     15373     15376     15379     15380
     15373     15376     15379     15381     15373     15376     15379     15382
     15374     15373     15376     15377     15374     15373     15376     15378
     15374     15373     15376     15379     15375     15373     15376     15377
     15375     15373     15376     15378     15375     15373     15376     15379
     15376     15379     15382     15383     15376     15379     15382     15384
     15376     15379     15382     15385     15377     15376     15379     15380
     15377     15376     15379     15381     15377     15376     15379     15382
     15378     15376     15379     15380     15378     15376     15379     15381
     15378     15376     15379     15382     15380     15379     15382     15383
     15380     15379     15382     15384     15380     15379     15382     15385
     15381     15379     15382     15383     15381     15379     15382     15384
     15381     15379     15382     15385     15386     15387     15402     15403
     15386     15387     15402     15404     15386     15387     15402     15408
     15387     15386     15390     15391     15387     15386     15390     15392
     15387     15386     15390     15393     15387     15386     15394     15395
     15387     15386     15394     15396     15387     15386     15394     15397
     15387     15386     15398     15399     15387     15386     15398     15400
     15387     15386     15398     15401     15387     15402     15408     15405
     15388     15387     15386     15390     15388     15387     15386     15394
     15388     15387     15386     15398     15388     15387     15402     15403
     15388     15387     15402     15404     15388     15387     15402     15408
     15389     15387     15386     15390     15389     15387     15386     15394
     15389     15387     15386     15398     15389     15387     15402     15403
     15389     15387     15402     15404     15389     15387     15402     15408
     15390     15386     15387     15402     15390     15386     15394     15395
     15390     15386     15394     15396     15390     15386     15394     15397
     15390     15386     15398     15399     15390     15386     15398     15400
     15390     15386     15398     15401     15391     15390     15386     15394
     15391     15390     15386     15398     15392     15390     15386     15394
     15392     15390     15386     15398     15393     15390     15386     15394
     15393     15390     15386     15398     15394     15386     15387     15402
     15394     15386     15398     15399     15394     15386     15398     15400
     15394     15386     15398     15401     15395     15394     15386     15398
     15396     15394     15386     15398     15397     15394     15386     15398
     15398     15386     15387     15402     15402     15408     15405     15406
     15402     15408     15405     15407     15402     15408     15405     15409
     15403     15402     15408     15405     15404     15402     15408     15405
     15405     15409     15410     15411     15405     15409     15410     15412
     15405     15409     15410     15413     15406     15405     15409     15410
     15407     15405     15409     15410     15408     15405     15409     15410
     15409     15410     15413     15414     15409     15410     15413     15415
     15409     15410     15413     15421     15410     15413     15415     15416
     15410     15413     15421     15422     15410     15413     15421     15423
     15410     15413     15421     15424     15411     15410     15413     15414
     15411     15410     15413     15415     15411     15410     15413     15421
     15412     15410     15413     15414     15412     15410     15413     15415
     15412     15410     15413     15421     15413     15415     15416     15417
     15413     15415     15416     15418     15413     15421     15424     15425
     15414     15413     15415     15416     15414     15413     15421     15422
     15414     15413     15421     15423     15414     15413     15421     15424
     15415     15413     15421     15422     15415     15413     15421     15423
     15415     15413     15421     15424     15415     15416     15418     15419
     15415     15416     15418     15420     15415     15416     15418     15430
     15416     15415     15413     15421     15416     15418     15430     15431
     15416     15418     15430     15432     15416     15418     15430     15433
     15417     15416     15418     15419     15417     15416     15418     15420
     15417     15416     15418     15430     15418     15430     15433     15434
     15418     15430     15433     15435     15418     15430     15433     15436
     15419     15418     15430     15431     15419     15418     15430     15432
     15419     15418     15430     15433     15420     15418     15430     15431
     15420     15418     15430     15432     15420     15418     15430     15433
     15421     15424     15425     15426     15421     15424     15425     15427
     15422     15421     15424     15425     15423     15421     15424     15425
     15424     15425     15427     15428     15424     15425     15427     15429
     15424     15425     15427     15477     15425     15427     15477     15478
     15425     15427     15477     15479     15425     15427     15477     15480
     15426     15425     15427     15428     15426     15425     15427     15429
     15426     15425     15427     15477     15427     15477     15480     15481
     15427     15477     15480     15482     15427     15477     15480     15483
     15428     15427     15477     15478     15428     15427     15477     15479
     15428     15427     15477     15480     15429     15427     15477     15478
     15429     15427     15477     15479     15429     15427     15477     15480
     15430     15433     15436     15437     15430     15433     15436     15438
     15430     15433     15436     15439     15431     15430     15433     15434
     15431     15430     15433     15435     15431     15430     15433     15436
     15432     15430     15433     15434     15432     15430     15433     15435
     15432     15430     15433     15436     15433     15436     15439     15440
     15433     15436     15439     15441     15433     15436     15439     15442
     15434     15433     15436     15437     15434     15433     15436     15438
     15434     15433     15436     15439     15435     15433     15436     15437
     15435     15433     15436     15438     15435     15433     15436     15439
     15436     15439     15442     15443     15436     15439     15442     15444
     15436     15439     15442     15445     15437     15436     15439     15440
     15437     15436     15439     15441     15437     15436     15439     15442
     15438     15436     15439     15440     15438     15436     15439     15441
     15438     15436     15439     15442     15439     15442     15445     15446
     15439     15442     15445     15447     15439     15442     15445     15448
     15440     15439     15442     15443     15440     15439     15442     15444
     15440     15439     15442     15445     15441     15439     15442     15443
     15441     15439     15442     15444     15441     15439     15442     15445
     15442     15445     15448     15449     15442     15445     15448     15450
     15443     15442     15445     15446     15443     15442     15445     15447
     15443     15442     15445     15448     15444     15442     15445     15446
     15444     15442     15445     15447     15444     15442     15445     15448
     15445     15448     15450     15451     15445     15448     15450     15452
     15446     15445     15448     15449     15446     15445     15448     15450
     15447     15445     15448     15449     15447     15445     15448     15450
     15448     15450     15452     15453     15448     15450     15452     15454
     15448     15450     15452     15455     15449     15448     15450     15451
     15449     15448     15450     15452     15450     15452     15455     15456
     15450     15452     15455     15457     15450     15452     15455     15458
     15451     15450     15452     15453     15451     15450     15452     15454
     15451     15450     15452     15455     15452     15455     15458     15459
     15452     15455     15458     15460     15452     15455     15458     15461
     15453     15452     15455     15456     15453     15452     15455     15457
     15453     15452     15455     15458     15454     15452     15455     15456
     15454     15452     15455     15457     15454     15452     15455     15458
     15455     15458     15461     15462     15455     15458     15461     15463
     15455     15458     15461     15464     15456     15455     15458     15459
     15456     15455     15458     15460     15456     15455     15458     15461
     15457     15455     15458     15459     15457     15455     15458     15460
     15457     15455     15458     15461     15458     15461     15464     15465
     15458     15461     15464     15466     15458     15461     15464     15467
     15459     15458     15461     15462     15459     15458     15461     15463
     15459     15458     15461     15464     15460     15458     15461     15462
     15460     15458     15461     15463     15460     15458     15461     15464
     15461     15464     15467     15468     15461     15464     15467     15469
     15461     15464     15467     15470     15462     15461     15464     15465
     15462     15461     15464     15466     15462     15461     15464     15467
     15463     15461     15464     15465     15463     15461     15464     15466
     15463     15461     15464     15467     15464     15467     15470     15471
     15464     15467     15470     15472     15464     15467     15470     15473
     15465     15464     15467     15468     15465     15464     15467     15469
     15465     15464     15467     15470     15466     15464     15467     15468
     15466     15464     15467     15469     15466     15464     15467     15470
     15467     15470     15473     15474     15467     15470     15473     15475
     15467     15470     15473     15476     15468     15467     15470     15471
     15468     15467     15470     15472     15468     15467     15470     15473
     15469     15467     15470     15471     15469     15467     15470     15472
     15469     15467     15470     15473     15471     15470     15473     15474
     15471     15470     15473     15475     15471     15470     15473     15476
     15472     15470     15473     15474     15472     15470     15473     15475
     15472     15470     15473     15476     15477     15480     15483     15484
     15477     15480     15483     15485     15477     15480     15483     15486
     15478     15477     15480     15481     15478     15477     15480     15482
     15478     15477     15480     15483     15479     15477     15480     15481
     15479     15477     15480     15482     15479     15477     15480     15483
     15480     15483     15486     15487     15480     15483     15486     15488
     15480     15483     15486     15489     15481     15480     15483     15484
     15481     15480     15483     15485     15481     15480     15483     15486
     15482     15480     15483     15484     15482     15480     15483     15485
     15482     15480     15483     15486     15483     15486     15489     15490
     15483     15486     15489     15491     15483     15486     15489     15492
     15484     15483     15486     15487     15484     15483     15486     15488
     15484     15483     15486     15489     15485     15483     15486     15487
     15485     15483     15486     15488     15485     15483     15486     15489
     15486     15489     15492     15493     15486     15489     15492     15494
     15486     15489     15492     15495     15487     15486     15489     15490
     15487     15486     15489     15491     15487     15486     15489     15492
     15488     15486     15489     15490     15488     15486     15489     15491
     15488     15486     15489     15492     15489     15492     15495     15496
     15489     15492     15495     15497     15489     15492     15495     15498
     15490     15489     15492     15493     15490     15489     15492     15494
     15490     15489     15492     15495     15491     15489     15492     15493
     15491     15489     15492     15494     15491     15489     15492     15495
     15492     15495     15498     15499     15492     15495     15498     15500
     15492     15495     15498     15501     15493     15492     15495     15496
     15493     15492     15495     15497     15493     15492     15495     15498
     15494     15492     15495     15496     15494     15492     15495     15497
     15494     15492     15495     15498     15495     15498     15501     15502
     15495     15498     15501     15503     15495     15498     15501     15504
     15496     15495     15498     15499     15496     15495     15498     15500
     15496     15495     15498     15501     15497     15495     15498     15499
     15497     15495     15498     15500     15497     15495     15498     15501
     15498     15501     15504     15505     15498     15501     15504     15506
     15498     15501     15504     15507     15499     15498     15501     15502
     15499     15498     15501     15503     15499     15498     15501     15504
     15500     15498     15501     15502     15500     15498     15501     15503
     15500     15498     15501     15504     15501     15504     15507     15508
     15501     15504     15507     15509     15501     15504     15507     15510
     15502     15501     15504     15505     15502     15501     15504     15506
     15502     15501     15504     15507     15503     15501     15504     15505
     15503     15501     15504     15506     15503     15501     15504     15507
     15504     15507     15510     15511     15504     15507     15510     15512
     15504     15507     15510     15513     15505     15504     15507     15508
     15505     15504     15507     15509     15505     15504     15507     15510
     15506     15504     15507     15508     15506     15504     15507     15509
     15506     15504     15507     15510     15507     15510     15513     15514
     15507     15510     15513     15515     15507     15510     15513     15516
     15508     15507     15510     15511     15508     15507     15510     15512
     15508     15507     15510     15513     15509     15507     15510     15511
     15509     15507     15510     15512     15509     15507     15510     15513
     15510     15513     15516     15517     15510     15513     15516     15518
     15510     15513     15516     15519     15511     15510     15513     15514
     15511     15510     15513     15515     15511     15510     15513     15516
     15512     15510     15513     15514     15512     15510     15513     15515
     15512     15510     15513     15516     15514     15513     15516     15517
     15514     15513     15516     15518     15514     15513     15516     15519
     15515     15513     15516     15517     15515     15513     15516     15518
     15515     15513     15516     15519     15520     15524     15526     15527
     15520     15524     15526     15528     15520     15524     15529     15530
     15520     15524     15529     15531     15520     15524     15529     15535
     15521     15520     15524     15525     15521     15520     15524     15526
     15521     15520     15524     15529     15522     15520     15524     15525
     15522     15520     15524     15526     15522     15520     15524     15529
     15523     15520     15524     15525     15523     15520     15524     15526
     15523     15520     15524     15529     15524     15529     15535     15532
     15525     15524     15526     15527     15525     15524     15526     15528
     15525     15524     15529     15530     15525     15524     15529     15531
     15525     15524     15529     15535     15526     15524     15529     15530
     15526     15524     15529     15531     15526     15524     15529     15535
     15527     15526     15524     15529     15528     15526     15524     15529
     15529     15535     15532     15533     15529     15535     15532     15534
     15529     15535     15532     15536     15530     15529     15535     15532
     15531     15529     15535     15532     15532     15536     15537     15538
     15532     15536     15537     15539     15532     15536     15537     15540
     15533     15532     15536     15537     15534     15532     15536     15537
     15535     15532     15536     15537     15536     15537     15540     15541
     15536     15537     15540     15542     15536     15537     15540     15548
     15537     15540     15542     15543     15537     15540     15548     15549
     15537     15540     15548     15550     15537     15540     15548     15551
     15538     15537     15540     15541     15538     15537     15540     15542
     15538     15537     15540     15548     15539     15537     15540     15541
     15539     15537     15540     15542     15539     15537     15540     15548
     15540     15542     15543     15544     15540     15542     15543     15545
     15540     15548     15551     15552     15541     15540     15542     15543
     15541     15540     15548     15549     15541     15540     15548     15550
     15541     15540     15548     15551     15542     15540     15548     15549
     15542     15540     15548     15550     15542     15540     15548     15551
     15542     15543     15545     15546     15542     15543     15545     15547
     15542     15543     15545     15557     15543     15542     15540     15548
     15543     15545     15557     15558     15543     15545     15557     15559
     15543     15545     15557     15560     15544     15543     15545     15546
     15544     15543     15545     15547     15544     15543     15545     15557
     15545     15557     15560     15561     15545     15557     15560     15562
     15545     15557     15560     15563     15546     15545     15557     15558
     15546     15545     15557     15559     15546     15545     15557     15560
     15547     15545     15557     15558     15547     15545     15557     15559
     15547     15545     15557     15560     15548     15551     15552     15553
     15548     15551     15552     15554     15549     15548     15551     15552
     15550     15548     15551     15552     15551     15552     15554     15555
     15551     15552     15554     15556     15551     15552     15554     15604
     15552     15554     15604     15605     15552     15554     15604     15606
     15552     15554     15604     15607     15553     15552     15554     15555
     15553     15552     15554     15556     15553     15552     15554     15604
     15554     15604     15607     15608     15554     15604     15607     15609
     15554     15604     15607     15610     15555     15554     15604     15605
     15555     15554     15604     15606     15555     15554     15604     15607
     15556     15554     15604     15605     15556     15554     15604     15606
     15556     15554     15604     15607     15557     15560     15563     15564
     15557     15560     15563     15565     15557     15560     15563     15566
     15558     15557     15560     15561     15558     15557     15560     15562
     15558     15557     15560     15563     15559     15557     15560     15561
     15559     15557     15560     15562     15559     15557     15560     15563
     15560     15563     15566     15567     15560     15563     15566     15568
     15560     15563     15566     15569     15561     15560     15563     15564
     15561     15560     15563     15565     15561     15560     15563     15566
     15562     15560     15563     15564     15562     15560     15563     15565
     15562     15560     15563     15566     15563     15566     15569     15570
     15563     15566     15569     15571     15563     15566     15569     15572
     15564     15563     15566     15567     15564     15563     15566     15568
     15564     15563     15566     15569     15565     15563     15566     15567
     15565     15563     15566     15568     15565     15563     15566     15569
     15566     15569     15572     15573     15566     15569     15572     15574
     15566     15569     15572     15575     15567     15566     15569     15570
     15567     15566     15569     15571     15567     15566     15569     15572
     15568     15566     15569     15570     15568     15566     15569     15571
     15568     15566     15569     15572     15569     15572     15575     15576
     15569     15572     15575     15577     15570     15569     15572     15573
     15570     15569     15572     15574     15570     15569     15572     15575
     15571     15569     15572     15573     15571     15569     15572     15574
     15571     15569     15572     15575     15572     15575     15577     15578
     15572     15575     15577     15579     15573     15572     15575     15576
     15573     15572     15575     15577     15574     15572     15575     15576
     15574     15572     15575     15577     15575     15577     15579     15580
     15575     15577     15579     15581     15575     15577     15579     15582
     15576     15575     15577     15578     15576     15575     15577     15579
     15577     15579     15582     15583     15577     15579     15582     15584
     15577     15579     15582     15585     15578     15577     15579     15580
     15578     15577     15579     15581     15578     15577     15579     15582
     15579     15582     15585     15586     15579     15582     15585     15587
     15579     15582     15585     15588     15580     15579     15582     15583
     15580     15579     15582     15584     15580     15579     15582     15585
     15581     15579     15582     15583     15581     15579     15582     15584
     15581     15579     15582     15585     15582     15585     15588     15589
     15582     15585     15588     15590     15582     15585     15588     15591
     15583     15582     15585     15586     15583     15582     15585     15587
     15583     15582     15585     15588     15584     15582     15585     15586
     15584     15582     15585     15587     15584     15582     15585     15588
     15585     15588     15591     15592     15585     15588     15591     15593
     15585     15588     15591     15594     15586     15585     15588     15589
     15586     15585     15588     15590     15586     15585     15588     15591
     15587     15585     15588     15589     15587     15585     15588     15590
     15587     15585     15588     15591     15588     15591     15594     15595
     15588     15591     15594     15596     15588     15591     15594     15597
     15589     15588     15591     15592     15589     15588     15591     15593
     15589     15588     15591     15594     15590     15588     15591     15592
     15590     15588     15591     15593     15590     15588     15591     15594
     15591     15594     15597     15598     15591     15594     15597     15599
     15591     15594     15597     15600     15592     15591     15594     15595
     15592     15591     15594     15596     15592     15591     15594     15597
     15593     15591     15594     15595     15593     15591     15594     15596
     15593     15591     15594     15597     15594     15597     15600     15601
     15594     15597     15600     15602     15594     15597     15600     15603
     15595     15594     15597     15598     15595     15594     15597     15599
     15595     15594     15597     15600     15596     15594     15597     15598
     15596     15594     15597     15599     15596     15594     15597     15600
     15598     15597     15600     15601     15598     15597     15600     15602
     15598     15597     15600     15603     15599     15597     15600     15601
     15599     15597     15600     15602     15599     15597     15600     15603
     15604     15607     15610     15611     15604     15607     15610     15612
     15604     15607     15610     15613     15605     15604     15607     15608
     15605     15604     15607     15609     15605     15604     15607     15610
     15606     15604     15607     15608     15606     15604     15607     15609
     15606     15604     15607     15610     15607     15610     15613     15614
     15607     15610     15613     15615     15607     15610     15613     15616
     15608     15607     15610     15611     15608     15607     15610     15612
     15608     15607     15610     15613     15609     15607     15610     15611
     15609     15607     15610     15612     15609     15607     15610     15613
     15610     15613     15616     15617     15610     15613     15616     15618
     15610     15613     15616     15619     15611     15610     15613     15614
     15611     15610     15613     15615     15611     15610     15613     15616
     15612     15610     15613     15614     15612     15610     15613     15615
     15612     15610     15613     15616     15613     15616     15619     15620
     15613     15616     15619     15621     15613     15616     15619     15622
     15614     15613     15616     15617     15614     15613     15616     15618
     15614     15613     15616     15619     15615     15613     15616     15617
     15615     15613     15616     15618     15615     15613     15616     15619
     15616     15619     15622     15623     15616     15619     15622     15624
     15616     15619     15622     15625     15617     15616     15619     15620
     15617     15616     15619     15621     15617     15616     15619     15622
     15618     15616     15619     15620     15618     15616     15619     15621
     15618     15616     15619     15622     15619     15622     15625     15626
     15619     15622     15625     15627     15619     15622     15625     15628
     15620     15619     15622     15623     15620     15619     15622     15624
     15620     15619     15622     15625     15621     15619     15622     15623
     15621     15619     15622     15624     15621     15619     15622     15625
     15622     15625     15628     15629     15622     15625     15628     15630
     15622     15625     15628     15631     15623     15622     15625     15626
     15623     15622     15625     15627     15623     15622     15625     15628
     15624     15622     15625     15626     15624     15622     15625     15627
     15624     15622     15625     15628     15625     15628     15631     15632
     15625     15628     15631     15633     15625     15628     15631     15634
     15626     15625     15628     15629     15626     15625     15628     15630
     15626     15625     15628     15631     15627     15625     15628     15629
     15627     15625     15628     15630     15627     15625     15628     15631
     15628     15631     15634     15635     15628     15631     15634     15636
     15628     15631     15634     15637     15629     15628     15631     15632
     15629     15628     15631     15633     15629     15628     15631     15634
     15630     15628     15631     15632     15630     15628     15631     15633
     15630     15628     15631     15634     15631     15634     15637     15638
     15631     15634     15637     15639     15631     15634     15637     15640
     15632     15631     15634     15635     15632     15631     15634     15636
     15632     15631     15634     15637     15633     15631     15634     15635
     15633     15631     15634     15636     15633     15631     15634     15637
     15634     15637     15640     15641     15634     15637     15640     15642
     15634     15637     15640     15643     15635     15634     15637     15638
     15635     15634     15637     15639     15635     15634     15637     15640
     15636     15634     15637     15638     15636     15634     15637     15639
     15636     15634     15637     15640     15637     15640     15643     15644
     15637     15640     15643     15645     15637     15640     15643     15646
     15638     15637     15640     15641     15638     15637     15640     15642
     15638     15637     15640     15643     15639     15637     15640     15641
     15639     15637     15640     15642     15639     15637     15640     15643
     15641     15640     15643     15644     15641     15640     15643     15645
     15641     15640     15643     15646     15642     15640     15643     15644
     15642     15640     15643     15645     15642     15640     15643     15646
     15647     15651     15653     15654     15647     15651     15653     15655
     15647     15651     15656     15657     15647     15651     15656     15658
     15647     15651     15656     15662     15648     15647     15651     15652
     15648     15647     15651     15653     15648     15647     15651     15656
     15649     15647     15651     15652     15649     15647     15651     15653
     15649     15647     15651     15656     15650     15647     15651     15652
     15650     15647     15651     15653     15650     15647     15651     15656
     15651     15656     15662     15659     15652     15651     15653     15654
     15652     15651     15653     15655     15652     15651     15656     15657
     15652     15651     15656     15658     15652     15651     15656     15662
     15653     15651     15656     15657     15653     15651     15656     15658
     15653     15651     15656     15662     15654     15653     15651     15656
     15655     15653     15651     15656     15656     15662     15659     15660
     15656     15662     15659     15661     15656     15662     15659     15663
     15657     15656     15662     15659     15658     15656     15662     15659
     15659     15663     15664     15665     15659     15663     15664     15666
     15659     15663     15664     15667     15660     15659     15663     15664
     15661     15659     15663     15664     15662     15659     15663     15664
     15663     15664     15667     15668     15663     15664     15667     15669
     15663     15664     15667     15675     15664     15667     15669     15670
     15664     15667     15675     15676     15664     15667     15675     15677
     15664     15667     15675     15678     15665     15664     15667     15668
     15665     15664     15667     15669     15665     15664     15667     15675
     15666     15664     15667     15668     15666     15664     15667     15669
     15666     15664     15667     15675     15667     15669     15670     15671
     15667     15669     15670     15672     15667     15675     15678     15679
     15668     15667     15669     15670     15668     15667     15675     15676
     15668     15667     15675     15677     15668     15667     15675     15678
     15669     15667     15675     15676     15669     15667     15675     15677
     15669     15667     15675     15678     15669     15670     15672     15673
     15669     15670     15672     15674     15669     15670     15672     15684
     15670     15669     15667     15675     15670     15672     15684     15685
     15670     15672     15684     15686     15670     15672     15684     15687
     15671     15670     15672     15673     15671     15670     15672     15674
     15671     15670     15672     15684     15672     15684     15687     15688
     15672     15684     15687     15689     15672     15684     15687     15690
     15673     15672     15684     15685     15673     15672     15684     15686
     15673     15672     15684     15687     15674     15672     15684     15685
     15674     15672     15684     15686     15674     15672     15684     15687
     15675     15678     15679     15680     15675     15678     15679     15681
     15676     15675     15678     15679     15677     15675     15678     15679
     15678     15679     15681     15682     15678     15679     15681     15683
     15678     15679     15681     15731     15679     15681     15731     15732
     15679     15681     15731     15733     15679     15681     15731     15734
     15680     15679     15681     15682     15680     15679     15681     15683
     15680     15679     15681     15731     15681     15731     15734     15735
     15681     15731     15734     15736     15681     15731     15734     15737
     15682     15681     15731     15732     15682     15681     15731     15733
     15682     15681     15731     15734     15683     15681     15731     15732
     15683     15681     15731     15733     15683     15681     15731     15734
     15684     15687     15690     15691     15684     15687     15690     15692
     15684     15687     15690     15693     15685     15684     15687     15688
     15685     15684     15687     15689     15685     15684     15687     15690
     15686     15684     15687     15688     15686     15684     15687     15689
     15686     15684     15687     15690     15687     15690     15693     15694
     15687     15690     15693     15695     15687     15690     15693     15696
     15688     15687     15690     15691     15688     15687     15690     15692
     15688     15687     15690     15693     15689     15687     15690     15691
     15689     15687     15690     15692     15689     15687     15690     15693
     15690     15693     15696     15697     15690     15693     15696     15698
     15690     15693     15696     15699     15691     15690     15693     15694
     15691     15690     15693     15695     15691     15690     15693     15696
     15692     15690     15693     15694     15692     15690     15693     15695
     15692     15690     15693     15696     15693     15696     15699     15700
     15693     15696     15699     15701     15693     15696     15699     15702
     15694     15693     15696     15697     15694     15693     15696     15698
     15694     15693     15696     15699     15695     15693     15696     15697
     15695     15693     15696     15698     15695     15693     15696     15699
     15696     15699     15702     15703     15696     15699     15702     15704
     15697     15696     15699     15700     15697     15696     15699     15701
     15697     15696     15699     15702     15698     15696     15699     15700
     15698     15696     15699     15701     15698     15696     15699     15702
     15699     15702     15704     15705     15699     15702     15704     15706
     15700     15699     15702     15703     15700     15699     15702     15704
     15701     15699     15702     15703     15701     15699     15702     15704
     15702     15704     15706     15707     15702     15704     15706     15708
     15702     15704     15706     15709     15703     15702     15704     15705
     15703     15702     15704     15706     15704     15706     15709     15710
     15704     15706     15709     15711     15704     15706     15709     15712
     15705     15704     15706     15707     15705     15704     15706     15708
     15705     15704     15706     15709     15706     15709     15712     15713
     15706     15709     15712     15714     15706     15709     15712     15715
     15707     15706     15709     15710     15707     15706     15709     15711
     15707     15706     15709     15712     15708     15706     15709     15710
     15708     15706     15709     15711     15708     15706     15709     15712
     15709     15712     15715     15716     15709     15712     15715     15717
     15709     15712     15715     15718     15710     15709     15712     15713
     15710     15709     15712     15714     15710     15709     15712     15715
     15711     15709     15712     15713     15711     15709     15712     15714
     15711     15709     15712     15715     15712     15715     15718     15719
     15712     15715     15718     15720     15712     15715     15718     15721
     15713     15712     15715     15716     15713     15712     15715     15717
     15713     15712     15715     15718     15714     15712     15715     15716
     15714     15712     15715     15717     15714     15712     15715     15718
     15715     15718     15721     15722     15715     15718     15721     15723
     15715     15718     15721     15724     15716     15715     15718     15719
     15716     15715     15718     15720     15716     15715     15718     15721
     15717     15715     15718     15719     15717     15715     15718     15720
     15717     15715     15718     15721     15718     15721     15724     15725
     15718     15721     15724     15726     15718     15721     15724     15727
     15719     15718     15721     15722     15719     15718     15721     15723
     15719     15718     15721     15724     15720     15718     15721     15722
     15720     15718     15721     15723     15720     15718     15721     15724
     15721     15724     15727     15728     15721     15724     15727     15729
     15721     15724     15727     15730     15722     15721     15724     15725
     15722     15721     15724     15726     15722     15721     15724     15727
     15723     15721     15724     15725     15723     15721     15724     15726
     15723     15721     15724     15727     15725     15724     15727     15728
     15725     15724     15727     15729     15725     15724     15727     15730
     15726     15724     15727     15728     15726     15724     15727     15729
     15726     15724     15727     15730     15731     15734     15737     15738
     15731     15734     15737     15739     15731     15734     15737     15740
     15732     15731     15734     15735     15732     15731     15734     15736
     15732     15731     15734     15737     15733     15731     15734     15735
     15733     15731     15734     15736     15733     15731     15734     15737
     15734     15737     15740     15741     15734     15737     15740     15742
     15734     15737     15740     15743     15735     15734     15737     15738
     15735     15734     15737     15739     15735     15734     15737     15740
     15736     15734     15737     15738     15736     15734     15737     15739
     15736     15734     15737     15740     15737     15740     15743     15744
     15737     15740     15743     15745     15737     15740     15743     15746
     15738     15737     15740     15741     15738     15737     15740     15742
     15738     15737     15740     15743     15739     15737     15740     15741
     15739     15737     15740     15742     15739     15737     15740     15743
     15740     15743     15746     15747     15740     15743     15746     15748
     15740     15743     15746     15749     15741     15740     15743     15744
     15741     15740     15743     15745     15741     15740     15743     15746
     15742     15740     15743     15744     15742     15740     15743     15745
     15742     15740     15743     15746     15743     15746     15749     15750
     15743     15746     15749     15751     15743     15746     15749     15752
     15744     15743     15746     15747     15744     15743     15746     15748
     15744     15743     15746     15749     15745     15743     15746     15747
     15745     15743     15746     15748     15745     15743     15746     15749
     15746     15749     15752     15753     15746     15749     15752     15754
     15746     15749     15752     15755     15747     15746     15749     15750
     15747     15746     15749     15751     15747     15746     15749     15752
     15748     15746     15749     15750     15748     15746     15749     15751
     15748     15746     15749     15752     15749     15752     15755     15756
     15749     15752     15755     15757     15749     15752     15755     15758
     15750     15749     15752     15753     15750     15749     15752     15754
     15750     15749     15752     15755     15751     15749     15752     15753
     15751     15749     15752     15754     15751     15749     15752     15755
     15752     15755     15758     15759     15752     15755     15758     15760
     15752     15755     15758     15761     15753     15752     15755     15756
     15753     15752     15755     15757     15753     15752     15755     15758
     15754     15752     15755     15756     15754     15752     15755     15757
     15754     15752     15755     15758     15755     15758     15761     15762
     15755     15758     15761     15763     15755     15758     15761     15764
     15756     15755     15758     15759     15756     15755     15758     15760
     15756     15755     15758     15761     15757     15755     15758     15759
     15757     15755     15758     15760     15757     15755     15758     15761
     15758     15761     15764     15765     15758     15761     15764     15766
     15758     15761     15764     15767     15759     15758     15761     15762
     15759     15758     15761     15763     15759     15758     15761     15764
     15760     15758     15761     15762     15760     15758     15761     15763
     15760     15758     15761     15764     15761     15764     15767     15768
     15761     15764     15767     15769     15761     15764     15767     15770
     15762     15761     15764     15765     15762     15761     15764     15766
     15762     15761     15764     15767     15763     15761     15764     15765
     15763     15761     15764     15766     15763     15761     15764     15767
     15764     15767     15770     15771     15764     15767     15770     15772
     15764     15767     15770     15773     15765     15764     15767     15768
     15765     15764     15767     15769     15765     15764     15767     15770
     15766     15764     15767     15768     15766     15764     15767     15769
     15766     15764     15767     15770     15768     15767     15770     15771
     15768     15767     15770     15772     15768     15767     15770     15773
     15769     15767     15770     15771     15769     15767     15770     15772
     15769     15767     15770     15773     15774     15775     15790     15791
     15774     15775     15790     15792     15774     15775     15790     15796
     15775     15774     15778     15779     15775     15774     15778     15780
     15775     15774     15778     15781     15775     15774     15782     15783
     15775     15774     15782     15784     15775     15774     15782     15785
     15775     15774     15786     15787     15775     15774     15786     15788
     15775     15774     15786     15789     15775     15790     15796     15793
     15776     15775     15774     15778     15776     15775     15774     15782
     15776     15775     15774     15786     15776     15775     15790     15791
     15776     15775     15790     15792     15776     15775     15790     15796
     15777     15775     15774     15778     15777     15775     15774     15782
     15777     15775     15774     15786     15777     15775     15790     15791
     15777     15775     15790     15792     15777     15775     15790     15796
     15778     15774     15775     15790     15778     15774     15782     15783
     15778     15774     15782     15784     15778     15774     15782     15785
     15778     15774     15786     15787     15778     15774     15786     15788
     15778     15774     15786     15789     15779     15778     15774     15782
     15779     15778     15774     15786     15780     15778     15774     15782
     15780     15778     15774     15786     15781     15778     15774     15782
     15781     15778     15774     15786     15782     15774     15775     15790
     15782     15774     15786     15787     15782     15774     15786     15788
     15782     15774     15786     15789     15783     15782     15774     15786
     15784     15782     15774     15786     15785     15782     15774     15786
     15786     15774     15775     15790     15790     15796     15793     15794
     15790     15796     15793     15795     15790     15796     15793     15797
     15791     15790     15796     15793     15792     15790     15796     15793
     15793     15797     15798     15799     15793     15797     15798     15800
     15793     15797     15798     15801     15794     15793     15797     15798
     15795     15793     15797     15798     15796     15793     15797     15798
     15797     15798     15801     15802     15797     15798     15801     15803
     15797     15798     15801     15809     15798     15801     15803     15804
     15798     15801     15809     15810     15798     15801     15809     15811
     15798     15801     15809     15812     15799     15798     15801     15802
     15799     15798     15801     15803     15799     15798     15801     15809
     15800     15798     15801     15802     15800     15798     15801     15803
     15800     15798     15801     15809     15801     15803     15804     15805
     15801     15803     15804     15806     15801     15809     15812     15813
     15802     15801     15803     15804     15802     15801     15809     15810
     15802     15801     15809     15811     15802     15801     15809     15812
     15803     15801     15809     15810     15803     15801     15809     15811
     15803     15801     15809     15812     15803     15804     15806     15807
     15803     15804     15806     15808     15803     15804     15806     15818
     15804     15803     15801     15809     15804     15806     15818     15819
     15804     15806     15818     15820     15804     15806     15818     15821
     15805     15804     15806     15807     15805     15804     15806     15808
     15805     15804     15806     15818     15806     15818     15821     15822
     15806     15818     15821     15823     15806     15818     15821     15824
     15807     15806     15818     15819     15807     15806     15818     15820
     15807     15806     15818     15821     15808     15806     15818     15819
     15808     15806     15818     15820     15808     15806     15818     15821
     15809     15812     15813     15814     15809     15812     15813     15815
     15810     15809     15812     15813     15811     15809     15812     15813
     15812     15813     15815     15816     15812     15813     15815     15817
     15812     15813     15815     15865     15813     15815     15865     15866
     15813     15815     15865     15867     15813     15815     15865     15868
     15814     15813     15815     15816     15814     15813     15815     15817
     15814     15813     15815     15865     15815     15865     15868     15869
     15815     15865     15868     15870     15815     15865     15868     15871
     15816     15815     15865     15866     15816     15815     15865     15867
     15816     15815     15865     15868     15817     15815     15865     15866
     15817     15815     15865     15867     15817     15815     15865     15868
     15818     15821     15824     15825     15818     15821     15824     15826
     15818     15821     15824     15827     15819     15818     15821     15822
     15819     15818     15821     15823     15819     15818     15821     15824
     15820     15818     15821     15822     15820     15818     15821     15823
     15820     15818     15821     15824     15821     15824     15827     15828
     15821     15824     15827     15829     15821     15824     15827     15830
     15822     15821     15824     15825     15822     15821     15824     15826
     15822     15821     15824     15827     15823     15821     15824     15825
     15823     15821     15824     15826     15823     15821     15824     15827
     15824     15827     15830     15831     15824     15827     15830     15832
     15824     15827     15830     15833     15825     15824     15827     15828
     15825     15824     15827     15829     15825     15824     15827     15830
     15826     15824     15827     15828     15826     15824     15827     15829
     15826     15824     15827     15830     15827     15830     15833     15834
     15827     15830     15833     15835     15827     15830     15833     15836
     15828     15827     15830     15831     15828     15827     15830     15832
     15828     15827     15830     15833     15829     15827     15830     15831
     15829     15827     15830     15832     15829     15827     15830     15833
     15830     15833     15836     15837     15830     15833     15836     15838
     15831     15830     15833     15834     15831     15830     15833     15835
     15831     15830     15833     15836     15832     15830     15833     15834
     15832     15830     15833     15835     15832     15830     15833     15836
     15833     15836     15838     15839     15833     15836     15838     15840
     15834     15833     15836     15837     15834     15833     15836     15838
     15835     15833     15836     15837     15835     15833     15836     15838
     15836     15838     15840     15841     15836     15838     15840     15842
     15836     15838     15840     15843     15837     15836     15838     15839
     15837     15836     15838     15840     15838     15840     15843     15844
     15838     15840     15843     15845     15838     15840     15843     15846
     15839     15838     15840     15841     15839     15838     15840     15842
     15839     15838     15840     15843     15840     15843     15846     15847
     15840     15843     15846     15848     15840     15843     15846     15849
     15841     15840     15843     15844     15841     15840     15843     15845
     15841     15840     15843     15846     15842     15840     15843     15844
     15842     15840     15843     15845     15842     15840     15843     15846
     15843     15846     15849     15850     15843     15846     15849     15851
     15843     15846     15849     15852     15844     15843     15846     15847
     15844     15843     15846     15848     15844     15843     15846     15849
     15845     15843     15846     15847     15845     15843     15846     15848
     15845     15843     15846     15849     15846     15849     15852     15853
     15846     15849     15852     15854     15846     15849     15852     15855
     15847     15846     15849     15850     15847     15846     15849     15851
     15847     15846     15849     15852     15848     15846     15849     15850
     15848     15846     15849     15851     15848     15846     15849     15852
     15849     15852     15855     15856     15849     15852     15855     15857
     15849     15852     15855     15858     15850     15849     15852     15853
     15850     15849     15852     15854     15850     15849     15852     15855
     15851     15849     15852     15853     15851     15849     15852     15854
     15851     15849     15852     15855     15852     15855     15858     15859
     15852     15855     15858     15860     15852     15855     15858     15861
     15853     15852     15855     15856     15853     15852     15855     15857
     15853     15852     15855     15858     15854     15852     15855     15856
     15854     15852     15855     15857     15854     15852     15855     15858
     15855     15858     15861     15862     15855     15858     15861     15863
     15855     15858     15861     15864     15856     15855     15858     15859
     15856     15855     15858     15860     15856     15855     15858     15861
     15857     15855     15858     15859     15857     15855     15858     15860
     15857     15855     15858     15861     15859     15858     15861     15862
     15859     15858     15861     15863     15859     15858     15861     15864
     15860     15858     15861     15862     15860     15858     15861     15863
     15860     15858     15861     15864     15865     15868     15871     15872
     15865     15868     15871     15873     15865     15868     15871     15874
     15866     15865     15868     15869     15866     15865     15868     15870
     15866     15865     15868     15871     15867     15865     15868     15869
     15867     15865     15868     15870     15867     15865     15868     15871
     15868     15871     15874     15875     15868     15871     15874     15876
     15868     15871     15874     15877     15869     15868     15871     15872
     15869     15868     15871     15873     15869     15868     15871     15874
     15870     15868     15871     15872     15870     15868     15871     15873
     15870     15868     15871     15874     15871     15874     15877     15878
     15871     15874     15877     15879     15871     15874     15877     15880
     15872     15871     15874     15875     15872     15871     15874     15876
     15872     15871     15874     15877     15873     15871     15874     15875
     15873     15871     15874     15876     15873     15871     15874     15877
     15874     15877     15880     15881     15874     15877     15880     15882
     15874     15877     15880     15883     15875     15874     15877     15878
     15875     15874     15877     15879     15875     15874     15877     15880
     15876     15874     15877     15878     15876     15874     15877     15879
     15876     15874     15877     15880     15877     15880     15883     15884
     15877     15880     15883     15885     15877     15880     15883     15886
     15878     15877     15880     15881     15878     15877     15880     15882
     15878     15877     15880     15883     15879     15877     15880     15881
     15879     15877     15880     15882     15879     15877     15880     15883
     15880     15883     15886     15887     15880     15883     15886     15888
     15880     15883     15886     15889     15881     15880     15883     15884
     15881     15880     15883     15885     15881     15880     15883     15886
     15882     15880     15883     15884     15882     15880     15883     15885
     15882     15880     15883     15886     15883     15886     15889     15890
     15883     15886     15889     15891     15883     15886     15889     15892
     15884     15883     15886     15887     15884     15883     15886     15888
     15884     15883     15886     15889     15885     15883     15886     15887
     15885     15883     15886     15888     15885     15883     15886     15889
     15886     15889     15892     15893     15886     15889     15892     15894
     15886     15889     15892     15895     15887     15886     15889     15890
     15887     15886     15889     15891     15887     15886     15889     15892
     15888     15886     15889     15890     15888     15886     15889     15891
     15888     15886     15889     15892     15889     15892     15895     15896
     15889     15892     15895     15897     15889     15892     15895     15898
     15890     15889     15892     15893     15890     15889     15892     15894
     15890     15889     15892     15895     15891     15889     15892     15893
     15891     15889     15892     15894     15891     15889     15892     15895
     15892     15895     15898     15899     15892     15895     15898     15900
     15892     15895     15898     15901     15893     15892     15895     15896
     15893     15892     15895     15897     15893     15892     15895     15898
     15894     15892     15895     15896     15894     15892     15895     15897
     15894     15892     15895     15898     15895     15898     15901     15902
     15895     15898     15901     15903     15895     15898     15901     15904
     15896     15895     15898     15899     15896     15895     15898     15900
     15896     15895     15898     15901     15897     15895     15898     15899
     15897     15895     15898     15900     15897     15895     15898     15901
     15898     15901     15904     15905     15898     15901     15904     15906
     15898     15901     15904     15907     15899     15898     15901     15902
     15899     15898     15901     15903     15899     15898     15901     15904
     15900     15898     15901     15902     15900     15898     15901     15903
     15900     15898     15901     15904     15902     15901     15904     15905
     15902     15901     15904     15906     15902     15901     15904     15907
     15903     15901     15904     15905     15903     15901     15904     15906
     15903     15901     15904     15907     15908     15912     15914     15915
     15908     15912     15914     15916     15908     15912     15917     15918
     15908     15912     15917     15919     15908     15912     15917     15923
     15909     15908     15912     15913     15909     15908     15912     15914
     15909     15908     15912     15917     15910     15908     15912     15913
     15910     15908     15912     15914     15910     15908     15912     15917
     15911     15908     15912     15913     15911     15908     15912     15914
     15911     15908     15912     15917     15912     15917     15923     15920
     15913     15912     15914     15915     15913     15912     15914     15916
     15913     15912     15917     15918     15913     15912     15917     15919
     15913     15912     15917     15923     15914     15912     15917     15918
     15914     15912     15917     15919     15914     15912     15917     15923
     15915     15914     15912     15917     15916     15914     15912     15917
     15917     15923     15920     15921     15917     15923     15920     15922
     15917     15923     15920     15924     15918     15917     15923     15920
     15919     15917     15923     15920     15920     15924     15925     15926
     15920     15924     15925     15927     15920     15924     15925     15928
     15921     15920     15924     15925     15922     15920     15924     15925
     15923     15920     15924     15925     15924     15925     15928     15929
     15924     15925     15928     15930     15924     15925     15928     15936
     15925     15928     15930     15931     15925     15928     15936     15937
     15925     15928     15936     15938     15925     15928     15936     15939
     15926     15925     15928     15929     15926     15925     15928     15930
     15926     15925     15928     15936     15927     15925     15928     15929
     15927     15925     15928     15930     15927     15925     15928     15936
     15928     15930     15931     15932     15928     15930     15931     15933
     15928     15936     15939     15940     15929     15928     15930     15931
     15929     15928     15936     15937     15929     15928     15936     15938
     15929     15928     15936     15939     15930     15928     15936     15937
     15930     15928     15936     15938     15930     15928     15936     15939
     15930     15931     15933     15934     15930     15931     15933     15935
     15930     15931     15933     15945     15931     15930     15928     15936
     15931     15933     15945     15946     15931     15933     15945     15947
     15931     15933     15945     15948     15932     15931     15933     15934
     15932     15931     15933     15935     15932     15931     15933     15945
     15933     15945     15948     15949     15933     15945     15948     15950
     15933     15945     15948     15951     15934     15933     15945     15946
     15934     15933     15945     15947     15934     15933     15945     15948
     15935     15933     15945     15946     15935     15933     15945     15947
     15935     15933     15945     15948     15936     15939     15940     15941
     15936     15939     15940     15942     15937     15936     15939     15940
     15938     15936     15939     15940     15939     15940     15942     15943
     15939     15940     15942     15944     15939     15940     15942     15992
     15940     15942     15992     15993     15940     15942     15992     15994
     15940     15942     15992     15995     15941     15940     15942     15943
     15941     15940     15942     15944     15941     15940     15942     15992
     15942     15992     15995     15996     15942     15992     15995     15997
     15942     15992     15995     15998     15943     15942     15992     15993
     15943     15942     15992     15994     15943     15942     15992     15995
     15944     15942     15992     15993     15944     15942     15992     15994
     15944     15942     15992     15995     15945     15948     15951     15952
     15945     15948     15951     15953     15945     15948     15951     15954
     15946     15945     15948     15949     15946     15945     15948     15950
     15946     15945     15948     15951     15947     15945     15948     15949
     15947     15945     15948     15950     15947     15945     15948     15951
     15948     15951     15954     15955     15948     15951     15954     15956
     15948     15951     15954     15957     15949     15948     15951     15952
     15949     15948     15951     15953     15949     15948     15951     15954
     15950     15948     15951     15952     15950     15948     15951     15953
     15950     15948     15951     15954     15951     15954     15957     15958
     15951     15954     15957     15959     15951     15954     15957     15960
     15952     15951     15954     15955     15952     15951     15954     15956
     15952     15951     15954     15957     15953     15951     15954     15955
     15953     15951     15954     15956     15953     15951     15954     15957
     15954     15957     15960     15961     15954     15957     15960     15962
     15954     15957     15960     15963     15955     15954     15957     15958
     15955     15954     15957     15959     15955     15954     15957     15960
     15956     15954     15957     15958     15956     15954     15957     15959
     15956     15954     15957     15960     15957     15960     15963     15964
     15957     15960     15963     15965     15958     15957     15960     15961
     15958     15957     15960     15962     15958     15957     15960     15963
     15959     15957     15960     15961     15959     15957     15960     15962
     15959     15957     15960     15963     15960     15963     15965     15966
     15960     15963     15965     15967     15961     15960     15963     15964
     15961     15960     15963     15965     15962     15960     15963     15964
     15962     15960     15963     15965     15963     15965     15967     15968
     15963     15965     15967     15969     15963     15965     15967     15970
     15964     15963     15965     15966     15964     15963     15965     15967
     15965     15967     15970     15971     15965     15967     15970     15972
     15965     15967     15970     15973     15966     15965     15967     15968
     15966     15965     15967     15969     15966     15965     15967     15970
     15967     15970     15973     15974     15967     15970     15973     15975
     15967     15970     15973     15976     15968     15967     15970     15971
     15968     15967     15970     15972     15968     15967     15970     15973
     15969     15967     15970     15971     15969     15967     15970     15972
     15969     15967     15970     15973     15970     15973     15976     15977
     15970     15973     15976     15978     15970     15973     15976     15979
     15971     15970     15973     15974     15971     15970     15973     15975
     15971     15970     15973     15976     15972     15970     15973     15974
     15972     15970     15973     15975     15972     15970     15973     15976
     15973     15976     15979     15980     15973     15976     15979     15981
     15973     15976     15979     15982     15974     15973     15976     15977
     15974     15973     15976     15978     15974     15973     15976     15979
     15975     15973     15976     15977     15975     15973     15976     15978
     15975     15973     15976     15979     15976     15979     15982     15983
     15976     15979     15982     15984     15976     15979     15982     15985
     15977     15976     15979     15980     15977     15976     15979     15981
     15977     15976     15979     15982     15978     15976     15979     15980
     15978     15976     15979     15981     15978     15976     15979     15982
     15979     15982     15985     15986     15979     15982     15985     15987
     15979     15982     15985     15988     15980     15979     15982     15983
     15980     15979     15982     15984     15980     15979     15982     15985
     15981     15979     15982     15983     15981     15979     15982     15984
     15981     15979     15982     15985     15982     15985     15988     15989
     15982     15985     15988     15990     15982     15985     15988     15991
     15983     15982     15985     15986     15983     15982     15985     15987
     15983     15982     15985     15988     15984     15982     15985     15986
     15984     15982     15985     15987     15984     15982     15985     15988
     15986     15985     15988     15989     15986     15985     15988     15990
     15986     15985     15988     15991     15987     15985     15988     15989
     15987     15985     15988     15990     15987     15985     15988     15991
     15992     15995     15998     15999     15992     15995     15998     16000
     15992     15995     15998     16001     15993     15992     15995     15996
     15993     15992     15995     15997     15993     15992     15995     15998
     15994     15992     15995     15996     15994     15992     15995     15997
     15994     15992     15995     15998     15995     15998     16001     16002
     15995     15998     16001     16003     15995     15998     16001     16004
     15996     15995     15998     15999     15996     15995     15998     16000
     15996     15995     15998     16001     15997     15995     15998     15999
     15997     15995     15998     16000     15997     15995     15998     16001
     15998     16001     16004     16005     15998     16001     16004     16006
     15998     16001     16004     16007     15999     15998     16001     16002
     15999     15998     16001     16003     15999     15998     16001     16004
     16000     15998     16001     16002     16000     15998     16001     16003
     16000     15998     16001     16004     16001     16004     16007     16008
     16001     16004     16007     16009     16001     16004     16007     16010
     16002     16001     16004     16005     16002     16001     16004     16006
     16002     16001     16004     16007     16003     16001     16004     16005
     16003     16001     16004     16006     16003     16001     16004     16007
     16004     16007     16010     16011     16004     16007     16010     16012
     16004     16007     16010     16013     16005     16004     16007     16008
     16005     16004     16007     16009     16005     16004     16007     16010
     16006     16004     16007     16008     16006     16004     16007     16009
     16006     16004     16007     16010     16007     16010     16013     16014
     16007     16010     16013     16015     16007     16010     16013     16016
     16008     16007     16010     16011     16008     16007     16010     16012
     16008     16007     16010     16013     16009     16007     16010     16011
     16009     16007     16010     16012     16009     16007     16010     16013
     16010     16013     16016     16017     16010     16013     16016     16018
     16010     16013     16016     16019     16011     16010     16013     16014
     16011     16010     16013     16015     16011     16010     16013     16016
     16012     16010     16013     16014     16012     16010     16013     16015
     16012     16010     16013     16016     16013     16016     16019     16020
     16013     16016     16019     16021     16013     16016     16019     16022
     16014     16013     16016     16017     16014     16013     16016     16018
     16014     16013     16016     16019     16015     16013     16016     16017
     16015     16013     16016     16018     16015     16013     16016     16019
     16016     16019     16022     16023     16016     16019     16022     16024
     16016     16019     16022     16025     16017     16016     16019     16020
     16017     16016     16019     16021     16017     16016     16019     16022
     16018     16016     16019     16020     16018     16016     16019     16021
     16018     16016     16019     16022     16019     16022     16025     16026
     16019     16022     16025     16027     16019     16022     16025     16028
     16020     16019     16022     16023     16020     16019     16022     16024
     16020     16019     16022     16025     16021     16019     16022     16023
     16021     16019     16022     16024     16021     16019     16022     16025
     16022     16025     16028     16029     16022     16025     16028     16030
     16022     16025     16028     16031     16023     16022     16025     16026
     16023     16022     16025     16027     16023     16022     16025     16028
     16024     16022     16025     16026     16024     16022     16025     16027
     16024     16022     16025     16028     16025     16028     16031     16032
     16025     16028     16031     16033     16025     16028     16031     16034
     16026     16025     16028     16029     16026     16025     16028     16030
     16026     16025     16028     16031     16027     16025     16028     16029
     16027     16025     16028     16030     16027     16025     16028     16031
     16029     16028     16031     16032     16029     16028     16031     16033
     16029     16028     16031     16034     16030     16028     16031     16032
     16030     16028     16031     16033     16030     16028     16031     16034
     16035     16036     16051     16052     16035     16036     16051     16053
     16035     16036     16051     16057     16036     16035     16039     16040
     16036     16035     16039     16041     16036     16035     16039     16042
     16036     16035     16043     16044     16036     16035     16043     16045
     16036     16035     16043     16046     16036     16035     16047     16048
     16036     16035     16047     16049     16036     16035     16047     16050
     16036     16051     16057     16054     16037     16036     16035     16039
     16037     16036     16035     16043     16037     16036     16035     16047
     16037     16036     16051     16052     16037     16036     16051     16053
     16037     16036     16051     16057     16038     16036     16035     16039
     16038     16036     16035     16043     16038     16036     16035     16047
     16038     16036     16051     16052     16038     16036     16051     16053
     16038     16036     16051     16057     16039     16035     16036     16051
     16039     16035     16043     16044     16039     16035     16043     16045
     16039     16035     16043     16046     16039     16035     16047     16048
     16039     16035     16047     16049     16039     16035     16047     16050
     16040     16039     16035     16043     16040     16039     16035     16047
     16041     16039     16035     16043     16041     16039     16035     16047
     16042     16039     16035     16043     16042     16039     16035     16047
     16043     16035     16036     16051     16043     16035     16047     16048
     16043     16035     16047     16049     16043     16035     16047     16050
     16044     16043     16035     16047     16045     16043     16035     16047
     16046     16043     16035     16047     16047     16035     16036     16051
     16051     16057     16054     16055     16051     16057     16054     16056
     16051     16057     16054     16058     16052     16051     16057     16054
     16053     16051     16057     16054     16054     16058     16059     16060
     16054     16058     16059     16061     16054     16058     16059     16062
     16055     16054     16058     16059     16056     16054     16058     16059
     16057     16054     16058     16059     16058     16059     16062     16063
     16058     16059     16062     16064     16058     16059     16062     16070
     16059     16062     16064     16065     16059     16062     16070     16071
     16059     16062     16070     16072     16059     16062     16070     16073
     16060     16059     16062     16063     16060     16059     16062     16064
     16060     16059     16062     16070     16061     16059     16062     16063
     16061     16059     16062     16064     16061     16059     16062     16070
     16062     16064     16065     16066     16062     16064     16065     16067
     16062     16070     16073     16074     16063     16062     16064     16065
     16063     16062     16070     16071     16063     16062     16070     16072
     16063     16062     16070     16073     16064     16062     16070     16071
     16064     16062     16070     16072     16064     16062     16070     16073
     16064     16065     16067     16068     16064     16065     16067     16069
     16064     16065     16067     16079     16065     16064     16062     16070
     16065     16067     16079     16080     16065     16067     16079     16081
     16065     16067     16079     16082     16066     16065     16067     16068
     16066     16065     16067     16069     16066     16065     16067     16079
     16067     16079     16082     16083     16067     16079     16082     16084
     16067     16079     16082     16085     16068     16067     16079     16080
     16068     16067     16079     16081     16068     16067     16079     16082
     16069     16067     16079     16080     16069     16067     16079     16081
     16069     16067     16079     16082     16070     16073     16074     16075
     16070     16073     16074     16076     16071     16070     16073     16074
     16072     16070     16073     16074     16073     16074     16076     16077
     16073     16074     16076     16078     16073     16074     16076     16126
     16074     16076     16126     16127     16074     16076     16126     16128
     16074     16076     16126     16129     16075     16074     16076     16077
     16075     16074     16076     16078     16075     16074     16076     16126
     16076     16126     16129     16130     16076     16126     16129     16131
     16076     16126     16129     16132     16077     16076     16126     16127
     16077     16076     16126     16128     16077     16076     16126     16129
     16078     16076     16126     16127     16078     16076     16126     16128
     16078     16076     16126     16129     16079     16082     16085     16086
     16079     16082     16085     16087     16079     16082     16085     16088
     16080     16079     16082     16083     16080     16079     16082     16084
     16080     16079     16082     16085     16081     16079     16082     16083
     16081     16079     16082     16084     16081     16079     16082     16085
     16082     16085     16088     16089     16082     16085     16088     16090
     16082     16085     16088     16091     16083     16082     16085     16086
     16083     16082     16085     16087     16083     16082     16085     16088
     16084     16082     16085     16086     16084     16082     16085     16087
     16084     16082     16085     16088     16085     16088     16091     16092
     16085     16088     16091     16093     16085     16088     16091     16094
     16086     16085     16088     16089     16086     16085     16088     16090
     16086     16085     16088     16091     16087     16085     16088     16089
     16087     16085     16088     16090     16087     16085     16088     16091
     16088     16091     16094     16095     16088     16091     16094     16096
     16088     16091     16094     16097     16089     16088     16091     16092
     16089     16088     16091     16093     16089     16088     16091     16094
     16090     16088     16091     16092     16090     16088     16091     16093
     16090     16088     16091     16094     16091     16094     16097     16098
     16091     16094     16097     16099     16092     16091     16094     16095
     16092     16091     16094     16096     16092     16091     16094     16097
     16093     16091     16094     16095     16093     16091     16094     16096
     16093     16091     16094     16097     16094     16097     16099     16100
     16094     16097     16099     16101     16095     16094     16097     16098
     16095     16094     16097     16099     16096     16094     16097     16098
     16096     16094     16097     16099     16097     16099     16101     16102
     16097     16099     16101     16103     16097     16099     16101     16104
     16098     16097     16099     16100     16098     16097     16099     16101
     16099     16101     16104     16105     16099     16101     16104     16106
     16099     16101     16104     16107     16100     16099     16101     16102
     16100     16099     16101     16103     16100     16099     16101     16104
     16101     16104     16107     16108     16101     16104     16107     16109
     16101     16104     16107     16110     16102     16101     16104     16105
     16102     16101     16104     16106     16102     16101     16104     16107
     16103     16101     16104     16105     16103     16101     16104     16106
     16103     16101     16104     16107     16104     16107     16110     16111
     16104     16107     16110     16112     16104     16107     16110     16113
     16105     16104     16107     16108     16105     16104     16107     16109
     16105     16104     16107     16110     16106     16104     16107     16108
     16106     16104     16107     16109     16106     16104     16107     16110
     16107     16110     16113     16114     16107     16110     16113     16115
     16107     16110     16113     16116     16108     16107     16110     16111
     16108     16107     16110     16112     16108     16107     16110     16113
     16109     16107     16110     16111     16109     16107     16110     16112
     16109     16107     16110     16113     16110     16113     16116     16117
     16110     16113     16116     16118     16110     16113     16116     16119
     16111     16110     16113     16114     16111     16110     16113     16115
     16111     16110     16113     16116     16112     16110     16113     16114
     16112     16110     16113     16115     16112     16110     16113     16116
     16113     16116     16119     16120     16113     16116     16119     16121
     16113     16116     16119     16122     16114     16113     16116     16117
     16114     16113     16116     16118     16114     16113     16116     16119
     16115     16113     16116     16117     16115     16113     16116     16118
     16115     16113     16116     16119     16116     16119     16122     16123
     16116     16119     16122     16124     16116     16119     16122     16125
     16117     16116     16119     16120     16117     16116     16119     16121
     16117     16116     16119     16122     16118     16116     16119     16120
     16118     16116     16119     16121     16118     16116     16119     16122
     16120     16119     16122     16123     16120     16119     16122     16124
     16120     16119     16122     16125     16121     16119     16122     16123
     16121     16119     16122     16124     16121     16119     16122     16125
     16126     16129     16132     16133     16126     16129     16132     16134
     16126     16129     16132     16135     16127     16126     16129     16130
     16127     16126     16129     16131     16127     16126     16129     16132
     16128     16126     16129     16130     16128     16126     16129     16131
     16128     16126     16129     16132     16129     16132     16135     16136
     16129     16132     16135     16137     16129     16132     16135     16138
     16130     16129     16132     16133     16130     16129     16132     16134
     16130     16129     16132     16135     16131     16129     16132     16133
     16131     16129     16132     16134     16131     16129     16132     16135
     16132     16135     16138     16139     16132     16135     16138     16140
     16132     16135     16138     16141     16133     16132     16135     16136
     16133     16132     16135     16137     16133     16132     16135     16138
     16134     16132     16135     16136     16134     16132     16135     16137
     16134     16132     16135     16138     16135     16138     16141     16142
     16135     16138     16141     16143     16135     16138     16141     16144
     16136     16135     16138     16139     16136     16135     16138     16140
     16136     16135     16138     16141     16137     16135     16138     16139
     16137     16135     16138     16140     16137     16135     16138     16141
     16138     16141     16144     16145     16138     16141     16144     16146
     16138     16141     16144     16147     16139     16138     16141     16142
     16139     16138     16141     16143     16139     16138     16141     16144
     16140     16138     16141     16142     16140     16138     16141     16143
     16140     16138     16141     16144     16141     16144     16147     16148
     16141     16144     16147     16149     16141     16144     16147     16150
     16142     16141     16144     16145     16142     16141     16144     16146
     16142     16141     16144     16147     16143     16141     16144     16145
     16143     16141     16144     16146     16143     16141     16144     16147
     16144     16147     16150     16151     16144     16147     16150     16152
     16144     16147     16150     16153     16145     16144     16147     16148
     16145     16144     16147     16149     16145     16144     16147     16150
     16146     16144     16147     16148     16146     16144     16147     16149
     16146     16144     16147     16150     16147     16150     16153     16154
     16147     16150     16153     16155     16147     16150     16153     16156
     16148     16147     16150     16151     16148     16147     16150     16152
     16148     16147     16150     16153     16149     16147     16150     16151
     16149     16147     16150     16152     16149     16147     16150     16153
     16150     16153     16156     16157     16150     16153     16156     16158
     16150     16153     16156     16159     16151     16150     16153     16154
     16151     16150     16153     16155     16151     16150     16153     16156
     16152     16150     16153     16154     16152     16150     16153     16155
     16152     16150     16153     16156     16153     16156     16159     16160
     16153     16156     16159     16161     16153     16156     16159     16162
     16154     16153     16156     16157     16154     16153     16156     16158
     16154     16153     16156     16159     16155     16153     16156     16157
     16155     16153     16156     16158     16155     16153     16156     16159
     16156     16159     16162     16163     16156     16159     16162     16164
     16156     16159     16162     16165     16157     16156     16159     16160
     16157     16156     16159     16161     16157     16156     16159     16162
     16158     16156     16159     16160     16158     16156     16159     16161
     16158     16156     16159     16162     16159     16162     16165     16166
     16159     16162     16165     16167     16159     16162     16165     16168
     16160     16159     16162     16163     16160     16159     16162     16164
     16160     16159     16162     16165     16161     16159     16162     16163
     16161     16159     16162     16164     16161     16159     16162     16165
     16163     16162     16165     16166     16163     16162     16165     16167
     16163     16162     16165     16168     16164     16162     16165     16166
     16164     16162     16165     16167     16164     16162     16165     16168
     16169     16170     16185     16186     16169     16170     16185     16187
     16169     16170     16185     16191     16170     16169     16173     16174
     16170     16169     16173     16175     16170     16169     16173     16176
     16170     16169     16177     16178     16170     16169     16177     16179
     16170     16169     16177     16180     16170     16169     16181     16182
     16170     16169     16181     16183     16170     16169     16181     16184
     16170     16185     16191     16188     16171     16170     16169     16173
     16171     16170     16169     16177     16171     16170     16169     16181
     16171     16170     16185     16186     16171     16170     16185     16187
     16171     16170     16185     16191     16172     16170     16169     16173
     16172     16170     16169     16177     16172     16170     16169     16181
     16172     16170     16185     16186     16172     16170     16185     16187
     16172     16170     16185     16191     16173     16169     16170     16185
     16173     16169     16177     16178     16173     16169     16177     16179
     16173     16169     16177     16180     16173     16169     16181     16182
     16173     16169     16181     16183     16173     16169     16181     16184
     16174     16173     16169     16177     16174     16173     16169     16181
     16175     16173     16169     16177     16175     16173     16169     16181
     16176     16173     16169     16177     16176     16173     16169     16181
     16177     16169     16170     16185     16177     16169     16181     16182
     16177     16169     16181     16183     16177     16169     16181     16184
     16178     16177     16169     16181     16179     16177     16169     16181
     16180     16177     16169     16181     16181     16169     16170     16185
     16185     16191     16188     16189     16185     16191     16188     16190
     16185     16191     16188     16192     16186     16185     16191     16188
     16187     16185     16191     16188     16188     16192     16193     16194
     16188     16192     16193     16195     16188     16192     16193     16196
     16189     16188     16192     16193     16190     16188     16192     16193
     16191     16188     16192     16193     16192     16193     16196     16197
     16192     16193     16196     16198     16192     16193     16196     16204
     16193     16196     16198     16199     16193     16196     16204     16205
     16193     16196     16204     16206     16193     16196     16204     16207
     16194     16193     16196     16197     16194     16193     16196     16198
     16194     16193     16196     16204     16195     16193     16196     16197
     16195     16193     16196     16198     16195     16193     16196     16204
     16196     16198     16199     16200     16196     16198     16199     16201
     16196     16204     16207     16208     16197     16196     16198     16199
     16197     16196     16204     16205     16197     16196     16204     16206
     16197     16196     16204     16207     16198     16196     16204     16205
     16198     16196     16204     16206     16198     16196     16204     16207
     16198     16199     16201     16202     16198     16199     16201     16203
     16198     16199     16201     16213     16199     16198     16196     16204
     16199     16201     16213     16214     16199     16201     16213     16215
     16199     16201     16213     16216     16200     16199     16201     16202
     16200     16199     16201     16203     16200     16199     16201     16213
     16201     16213     16216     16217     16201     16213     16216     16218
     16201     16213     16216     16219     16202     16201     16213     16214
     16202     16201     16213     16215     16202     16201     16213     16216
     16203     16201     16213     16214     16203     16201     16213     16215
     16203     16201     16213     16216     16204     16207     16208     16209
     16204     16207     16208     16210     16205     16204     16207     16208
     16206     16204     16207     16208     16207     16208     16210     16211
     16207     16208     16210     16212     16207     16208     16210     16260
     16208     16210     16260     16261     16208     16210     16260     16262
     16208     16210     16260     16263     16209     16208     16210     16211
     16209     16208     16210     16212     16209     16208     16210     16260
     16210     16260     16263     16264     16210     16260     16263     16265
     16210     16260     16263     16266     16211     16210     16260     16261
     16211     16210     16260     16262     16211     16210     16260     16263
     16212     16210     16260     16261     16212     16210     16260     16262
     16212     16210     16260     16263     16213     16216     16219     16220
     16213     16216     16219     16221     16213     16216     16219     16222
     16214     16213     16216     16217     16214     16213     16216     16218
     16214     16213     16216     16219     16215     16213     16216     16217
     16215     16213     16216     16218     16215     16213     16216     16219
     16216     16219     16222     16223     16216     16219     16222     16224
     16216     16219     16222     16225     16217     16216     16219     16220
     16217     16216     16219     16221     16217     16216     16219     16222
     16218     16216     16219     16220     16218     16216     16219     16221
     16218     16216     16219     16222     16219     16222     16225     16226
     16219     16222     16225     16227     16219     16222     16225     16228
     16220     16219     16222     16223     16220     16219     16222     16224
     16220     16219     16222     16225     16221     16219     16222     16223
     16221     16219     16222     16224     16221     16219     16222     16225
     16222     16225     16228     16229     16222     16225     16228     16230
     16222     16225     16228     16231     16223     16222     16225     16226
     16223     16222     16225     16227     16223     16222     16225     16228
     16224     16222     16225     16226     16224     16222     16225     16227
     16224     16222     16225     16228     16225     16228     16231     16232
     16225     16228     16231     16233     16226     16225     16228     16229
     16226     16225     16228     16230     16226     16225     16228     16231
     16227     16225     16228     16229     16227     16225     16228     16230
     16227     16225     16228     16231     16228     16231     16233     16234
     16228     16231     16233     16235     16229     16228     16231     16232
     16229     16228     16231     16233     16230     16228     16231     16232
     16230     16228     16231     16233     16231     16233     16235     16236
     16231     16233     16235     16237     16231     16233     16235     16238
     16232     16231     16233     16234     16232     16231     16233     16235
     16233     16235     16238     16239     16233     16235     16238     16240
     16233     16235     16238     16241     16234     16233     16235     16236
     16234     16233     16235     16237     16234     16233     16235     16238
     16235     16238     16241     16242     16235     16238     16241     16243
     16235     16238     16241     16244     16236     16235     16238     16239
     16236     16235     16238     16240     16236     16235     16238     16241
     16237     16235     16238     16239     16237     16235     16238     16240
     16237     16235     16238     16241     16238     16241     16244     16245
     16238     16241     16244     16246     16238     16241     16244     16247
     16239     16238     16241     16242     16239     16238     16241     16243
     16239     16238     16241     16244     16240     16238     16241     16242
     16240     16238     16241     16243     16240     16238     16241     16244
     16241     16244     16247     16248     16241     16244     16247     16249
     16241     16244     16247     16250     16242     16241     16244     16245
     16242     16241     16244     16246     16242     16241     16244     16247
     16243     16241     16244     16245     16243     16241     16244     16246
     16243     16241     16244     16247     16244     16247     16250     16251
     16244     16247     16250     16252     16244     16247     16250     16253
     16245     16244     16247     16248     16245     16244     16247     16249
     16245     16244     16247     16250     16246     16244     16247     16248
     16246     16244     16247     16249     16246     16244     16247     16250
     16247     16250     16253     16254     16247     16250     16253     16255
     16247     16250     16253     16256     16248     16247     16250     16251
     16248     16247     16250     16252     16248     16247     16250     16253
     16249     16247     16250     16251     16249     16247     16250     16252
     16249     16247     16250     16253     16250     16253     16256     16257
     16250     16253     16256     16258     16250     16253     16256     16259
     16251     16250     16253     16254     16251     16250     16253     16255
     16251     16250     16253     16256     16252     16250     16253     16254
     16252     16250     16253     16255     16252     16250     16253     16256
     16254     16253     16256     16257     16254     16253     16256     16258
     16254     16253     16256     16259     16255     16253     16256     16257
     16255     16253     16256     16258     16255     16253     16256     16259
     16260     16263     16266     16267     16260     16263     16266     16268
     16260     16263     16266     16269     16261     16260     16263     16264
     16261     16260     16263     16265     16261     16260     16263     16266
     16262     16260     16263     16264     16262     16260     16263     16265
     16262     16260     16263     16266     16263     16266     16269     16270
     16263     16266     16269     16271     16263     16266     16269     16272
     16264     16263     16266     16267     16264     16263     16266     16268
     16264     16263     16266     16269     16265     16263     16266     16267
     16265     16263     16266     16268     16265     16263     16266     16269
     16266     16269     16272     16273     16266     16269     16272     16274
     16266     16269     16272     16275     16267     16266     16269     16270
     16267     16266     16269     16271     16267     16266     16269     16272
     16268     16266     16269     16270     16268     16266     16269     16271
     16268     16266     16269     16272     16269     16272     16275     16276
     16269     16272     16275     16277     16269     16272     16275     16278
     16270     16269     16272     16273     16270     16269     16272     16274
     16270     16269     16272     16275     16271     16269     16272     16273
     16271     16269     16272     16274     16271     16269     16272     16275
     16272     16275     16278     16279     16272     16275     16278     16280
     16272     16275     16278     16281     16273     16272     16275     16276
     16273     16272     16275     16277     16273     16272     16275     16278
     16274     16272     16275     16276     16274     16272     16275     16277
     16274     16272     16275     16278     16275     16278     16281     16282
     16275     16278     16281     16283     16275     16278     16281     16284
     16276     16275     16278     16279     16276     16275     16278     16280
     16276     16275     16278     16281     16277     16275     16278     16279
     16277     16275     16278     16280     16277     16275     16278     16281
     16278     16281     16284     16285     16278     16281     16284     16286
     16278     16281     16284     16287     16279     16278     16281     16282
     16279     16278     16281     16283     16279     16278     16281     16284
     16280     16278     16281     16282     16280     16278     16281     16283
     16280     16278     16281     16284     16281     16284     16287     16288
     16281     16284     16287     16289     16281     16284     16287     16290
     16282     16281     16284     16285     16282     16281     16284     16286
     16282     16281     16284     16287     16283     16281     16284     16285
     16283     16281     16284     16286     16283     16281     16284     16287
     16284     16287     16290     16291     16284     16287     16290     16292
     16284     16287     16290     16293     16285     16284     16287     16288
     16285     16284     16287     16289     16285     16284     16287     16290
     16286     16284     16287     16288     16286     16284     16287     16289
     16286     16284     16287     16290     16287     16290     16293     16294
     16287     16290     16293     16295     16287     16290     16293     16296
     16288     16287     16290     16291     16288     16287     16290     16292
     16288     16287     16290     16293     16289     16287     16290     16291
     16289     16287     16290     16292     16289     16287     16290     16293
     16290     16293     16296     16297     16290     16293     16296     16298
     16290     16293     16296     16299     16291     16290     16293     16294
     16291     16290     16293     16295     16291     16290     16293     16296
     16292     16290     16293     16294     16292     16290     16293     16295
     16292     16290     16293     16296     16293     16296     16299     16300
     16293     16296     16299     16301     16293     16296     16299     16302
     16294     16293     16296     16297     16294     16293     16296     16298
     16294     16293     16296     16299     16295     16293     16296     16297
     16295     16293     16296     16298     16295     16293     16296     16299
     16297     16296     16299     16300     16297     16296     16299     16301
     16297     16296     16299     16302     16298     16296     16299     16300
     16298     16296     16299     16301     16298     16296     16299     16302
     16303     16304     16319     16320     16303     16304     16319     16321
     16303     16304     16319     16325     16304     16303     16307     16308
     16304     16303     16307     16309     16304     16303     16307     16310
     16304     16303     16311     16312     16304     16303     16311     16313
     16304     16303     16311     16314     16304     16303     16315     16316
     16304     16303     16315     16317     16304     16303     16315     16318
     16304     16319     16325     16322     16305     16304     16303     16307
     16305     16304     16303     16311     16305     16304     16303     16315
     16305     16304     16319     16320     16305     16304     16319     16321
     16305     16304     16319     16325     16306     16304     16303     16307
     16306     16304     16303     16311     16306     16304     16303     16315
     16306     16304     16319     16320     16306     16304     16319     16321
     16306     16304     16319     16325     16307     16303     16304     16319
     16307     16303     16311     16312     16307     16303     16311     16313
     16307     16303     16311     16314     16307     16303     16315     16316
     16307     16303     16315     16317     16307     16303     16315     16318
     16308     16307     16303     16311     16308     16307     16303     16315
     16309     16307     16303     16311     16309     16307     16303     16315
     16310     16307     16303     16311     16310     16307     16303     16315
     16311     16303     16304     16319     16311     16303     16315     16316
     16311     16303     16315     16317     16311     16303     16315     16318
     16312     16311     16303     16315     16313     16311     16303     16315
     16314     16311     16303     16315     16315     16303     16304     16319
     16319     16325     16322     16323     16319     16325     16322     16324
     16319     16325     16322     16326     16320     16319     16325     16322
     16321     16319     16325     16322     16322     16326     16327     16328
     16322     16326     16327     16329     16322     16326     16327     16330
     16323     16322     16326     16327     16324     16322     16326     16327
     16325     16322     16326     16327     16326     16327     16330     16331
     16326     16327     16330     16332     16326     16327     16330     16338
     16327     16330     16332     16333     16327     16330     16338     16339
     16327     16330     16338     16340     16327     16330     16338     16341
     16328     16327     16330     16331     16328     16327     16330     16332
     16328     16327     16330     16338     16329     16327     16330     16331
     16329     16327     16330     16332     16329     16327     16330     16338
     16330     16332     16333     16334     16330     16332     16333     16335
     16330     16338     16341     16342     16331     16330     16332     16333
     16331     16330     16338     16339     16331     16330     16338     16340
     16331     16330     16338     16341     16332     16330     16338     16339
     16332     16330     16338     16340     16332     16330     16338     16341
     16332     16333     16335     16336     16332     16333     16335     16337
     16332     16333     16335     16347     16333     16332     16330     16338
     16333     16335     16347     16348     16333     16335     16347     16349
     16333     16335     16347     16350     16334     16333     16335     16336
     16334     16333     16335     16337     16334     16333     16335     16347
     16335     16347     16350     16351     16335     16347     16350     16352
     16335     16347     16350     16353     16336     16335     16347     16348
     16336     16335     16347     16349     16336     16335     16347     16350
     16337     16335     16347     16348     16337     16335     16347     16349
     16337     16335     16347     16350     16338     16341     16342     16343
     16338     16341     16342     16344     16339     16338     16341     16342
     16340     16338     16341     16342     16341     16342     16344     16345
     16341     16342     16344     16346     16341     16342     16344     16394
     16342     16344     16394     16395     16342     16344     16394     16396
     16342     16344     16394     16397     16343     16342     16344     16345
     16343     16342     16344     16346     16343     16342     16344     16394
     16344     16394     16397     16398     16344     16394     16397     16399
     16344     16394     16397     16400     16345     16344     16394     16395
     16345     16344     16394     16396     16345     16344     16394     16397
     16346     16344     16394     16395     16346     16344     16394     16396
     16346     16344     16394     16397     16347     16350     16353     16354
     16347     16350     16353     16355     16347     16350     16353     16356
     16348     16347     16350     16351     16348     16347     16350     16352
     16348     16347     16350     16353     16349     16347     16350     16351
     16349     16347     16350     16352     16349     16347     16350     16353
     16350     16353     16356     16357     16350     16353     16356     16358
     16350     16353     16356     16359     16351     16350     16353     16354
     16351     16350     16353     16355     16351     16350     16353     16356
     16352     16350     16353     16354     16352     16350     16353     16355
     16352     16350     16353     16356     16353     16356     16359     16360
     16353     16356     16359     16361     16353     16356     16359     16362
     16354     16353     16356     16357     16354     16353     16356     16358
     16354     16353     16356     16359     16355     16353     16356     16357
     16355     16353     16356     16358     16355     16353     16356     16359
     16356     16359     16362     16363     16356     16359     16362     16364
     16356     16359     16362     16365     16357     16356     16359     16360
     16357     16356     16359     16361     16357     16356     16359     16362
     16358     16356     16359     16360     16358     16356     16359     16361
     16358     16356     16359     16362     16359     16362     16365     16366
     16359     16362     16365     16367     16360     16359     16362     16363
     16360     16359     16362     16364     16360     16359     16362     16365
     16361     16359     16362     16363     16361     16359     16362     16364
     16361     16359     16362     16365     16362     16365     16367     16368
     16362     16365     16367     16369     16363     16362     16365     16366
     16363     16362     16365     16367     16364     16362     16365     16366
     16364     16362     16365     16367     16365     16367     16369     16370
     16365     16367     16369     16371     16365     16367     16369     16372
     16366     16365     16367     16368     16366     16365     16367     16369
     16367     16369     16372     16373     16367     16369     16372     16374
     16367     16369     16372     16375     16368     16367     16369     16370
     16368     16367     16369     16371     16368     16367     16369     16372
     16369     16372     16375     16376     16369     16372     16375     16377
     16369     16372     16375     16378     16370     16369     16372     16373
     16370     16369     16372     16374     16370     16369     16372     16375
     16371     16369     16372     16373     16371     16369     16372     16374
     16371     16369     16372     16375     16372     16375     16378     16379
     16372     16375     16378     16380     16372     16375     16378     16381
     16373     16372     16375     16376     16373     16372     16375     16377
     16373     16372     16375     16378     16374     16372     16375     16376
     16374     16372     16375     16377     16374     16372     16375     16378
     16375     16378     16381     16382     16375     16378     16381     16383
     16375     16378     16381     16384     16376     16375     16378     16379
     16376     16375     16378     16380     16376     16375     16378     16381
     16377     16375     16378     16379     16377     16375     16378     16380
     16377     16375     16378     16381     16378     16381     16384     16385
     16378     16381     16384     16386     16378     16381     16384     16387
     16379     16378     16381     16382     16379     16378     16381     16383
     16379     16378     16381     16384     16380     16378     16381     16382
     16380     16378     16381     16383     16380     16378     16381     16384
     16381     16384     16387     16388     16381     16384     16387     16389
     16381     16384     16387     16390     16382     16381     16384     16385
     16382     16381     16384     16386     16382     16381     16384     16387
     16383     16381     16384     16385     16383     16381     16384     16386
     16383     16381     16384     16387     16384     16387     16390     16391
     16384     16387     16390     16392     16384     16387     16390     16393
     16385     16384     16387     16388     16385     16384     16387     16389
     16385     16384     16387     16390     16386     16384     16387     16388
     16386     16384     16387     16389     16386     16384     16387     16390
     16388     16387     16390     16391     16388     16387     16390     16392
     16388     16387     16390     16393     16389     16387     16390     16391
     16389     16387     16390     16392     16389     16387     16390     16393
     16394     16397     16400     16401     16394     16397     16400     16402
     16394     16397     16400     16403     16395     16394     16397     16398
     16395     16394     16397     16399     16395     16394     16397     16400
     16396     16394     16397     16398     16396     16394     16397     16399
     16396     16394     16397     16400     16397     16400     16403     16404
     16397     16400     16403     16405     16397     16400     16403     16406
     16398     16397     16400     16401     16398     16397     16400     16402
     16398     16397     16400     16403     16399     16397     16400     16401
     16399     16397     16400     16402     16399     16397     16400     16403
     16400     16403     16406     16407     16400     16403     16406     16408
     16400     16403     16406     16409     16401     16400     16403     16404
     16401     16400     16403     16405     16401     16400     16403     16406
     16402     16400     16403     16404     16402     16400     16403     16405
     16402     16400     16403     16406     16403     16406     16409     16410
     16403     16406     16409     16411     16403     16406     16409     16412
     16404     16403     16406     16407     16404     16403     16406     16408
     16404     16403     16406     16409     16405     16403     16406     16407
     16405     16403     16406     16408     16405     16403     16406     16409
     16406     16409     16412     16413     16406     16409     16412     16414
     16406     16409     16412     16415     16407     16406     16409     16410
     16407     16406     16409     16411     16407     16406     16409     16412
     16408     16406     16409     16410     16408     16406     16409     16411
     16408     16406     16409     16412     16409     16412     16415     16416
     16409     16412     16415     16417     16409     16412     16415     16418
     16410     16409     16412     16413     16410     16409     16412     16414
     16410     16409     16412     16415     16411     16409     16412     16413
     16411     16409     16412     16414     16411     16409     16412     16415
     16412     16415     16418     16419     16412     16415     16418     16420
     16412     16415     16418     16421     16413     16412     16415     16416
     16413     16412     16415     16417     16413     16412     16415     16418
     16414     16412     16415     16416     16414     16412     16415     16417
     16414     16412     16415     16418     16415     16418     16421     16422
     16415     16418     16421     16423     16415     16418     16421     16424
     16416     16415     16418     16419     16416     16415     16418     16420
     16416     16415     16418     16421     16417     16415     16418     16419
     16417     16415     16418     16420     16417     16415     16418     16421
     16418     16421     16424     16425     16418     16421     16424     16426
     16418     16421     16424     16427     16419     16418     16421     16422
     16419     16418     16421     16423     16419     16418     16421     16424
     16420     16418     16421     16422     16420     16418     16421     16423
     16420     16418     16421     16424     16421     16424     16427     16428
     16421     16424     16427     16429     16421     16424     16427     16430
     16422     16421     16424     16425     16422     16421     16424     16426
     16422     16421     16424     16427     16423     16421     16424     16425
     16423     16421     16424     16426     16423     16421     16424     16427
     16424     16427     16430     16431     16424     16427     16430     16432
     16424     16427     16430     16433     16425     16424     16427     16428
     16425     16424     16427     16429     16425     16424     16427     16430
     16426     16424     16427     16428     16426     16424     16427     16429
     16426     16424     16427     16430     16427     16430     16433     16434
     16427     16430     16433     16435     16427     16430     16433     16436
     16428     16427     16430     16431     16428     16427     16430     16432
     16428     16427     16430     16433     16429     16427     16430     16431
     16429     16427     16430     16432     16429     16427     16430     16433
     16431     16430     16433     16434     16431     16430     16433     16435
     16431     16430     16433     16436     16432     16430     16433     16434
     16432     16430     16433     16435     16432     16430     16433     16436
     16437     16438     16453     16454     16437     16438     16453     16455
     16437     16438     16453     16459     16438     16437     16441     16442
     16438     16437     16441     16443     16438     16437     16441     16444
     16438     16437     16445     16446     16438     16437     16445     16447
     16438     16437     16445     16448     16438     16437     16449     16450
     16438     16437     16449     16451     16438     16437     16449     16452
     16438     16453     16459     16456     16439     16438     16437     16441
     16439     16438     16437     16445     16439     16438     16437     16449
     16439     16438     16453     16454     16439     16438     16453     16455
     16439     16438     16453     16459     16440     16438     16437     16441
     16440     16438     16437     16445     16440     16438     16437     16449
     16440     16438     16453     16454     16440     16438     16453     16455
     16440     16438     16453     16459     16441     16437     16438     16453
     16441     16437     16445     16446     16441     16437     16445     16447
     16441     16437     16445     16448     16441     16437     16449     16450
     16441     16437     16449     16451     16441     16437     16449     16452
     16442     16441     16437     16445     16442     16441     16437     16449
     16443     16441     16437     16445     16443     16441     16437     16449
     16444     16441     16437     16445     16444     16441     16437     16449
     16445     16437     16438     16453     16445     16437     16449     16450
     16445     16437     16449     16451     16445     16437     16449     16452
     16446     16445     16437     16449     16447     16445     16437     16449
     16448     16445     16437     16449     16449     16437     16438     16453
     16453     16459     16456     16457     16453     16459     16456     16458
     16453     16459     16456     16460     16454     16453     16459     16456
     16455     16453     16459     16456     16456     16460     16461     16462
     16456     16460     16461     16463     16456     16460     16461     16464
     16457     16456     16460     16461     16458     16456     16460     16461
     16459     16456     16460     16461     16460     16461     16464     16465
     16460     16461     16464     16466     16460     16461     16464     16472
     16461     16464     16466     16467     16461     16464     16472     16473
     16461     16464     16472     16474     16461     16464     16472     16475
     16462     16461     16464     16465     16462     16461     16464     16466
     16462     16461     16464     16472     16463     16461     16464     16465
     16463     16461     16464     16466     16463     16461     16464     16472
     16464     16466     16467     16468     16464     16466     16467     16469
     16464     16472     16475     16476     16465     16464     16466     16467
     16465     16464     16472     16473     16465     16464     16472     16474
     16465     16464     16472     16475     16466     16464     16472     16473
     16466     16464     16472     16474     16466     16464     16472     16475
     16466     16467     16469     16470     16466     16467     16469     16471
     16466     16467     16469     16481     16467     16466     16464     16472
     16467     16469     16481     16482     16467     16469     16481     16483
     16467     16469     16481     16484     16468     16467     16469     16470
     16468     16467     16469     16471     16468     16467     16469     16481
     16469     16481     16484     16485     16469     16481     16484     16486
     16469     16481     16484     16487     16470     16469     16481     16482
     16470     16469     16481     16483     16470     16469     16481     16484
     16471     16469     16481     16482     16471     16469     16481     16483
     16471     16469     16481     16484     16472     16475     16476     16477
     16472     16475     16476     16478     16473     16472     16475     16476
     16474     16472     16475     16476     16475     16476     16478     16479
     16475     16476     16478     16480     16475     16476     16478     16528
     16476     16478     16528     16529     16476     16478     16528     16530
     16476     16478     16528     16531     16477     16476     16478     16479
     16477     16476     16478     16480     16477     16476     16478     16528
     16478     16528     16531     16532     16478     16528     16531     16533
     16478     16528     16531     16534     16479     16478     16528     16529
     16479     16478     16528     16530     16479     16478     16528     16531
     16480     16478     16528     16529     16480     16478     16528     16530
     16480     16478     16528     16531     16481     16484     16487     16488
     16481     16484     16487     16489     16481     16484     16487     16490
     16482     16481     16484     16485     16482     16481     16484     16486
     16482     16481     16484     16487     16483     16481     16484     16485
     16483     16481     16484     16486     16483     16481     16484     16487
     16484     16487     16490     16491     16484     16487     16490     16492
     16484     16487     16490     16493     16485     16484     16487     16488
     16485     16484     16487     16489     16485     16484     16487     16490
     16486     16484     16487     16488     16486     16484     16487     16489
     16486     16484     16487     16490     16487     16490     16493     16494
     16487     16490     16493     16495     16487     16490     16493     16496
     16488     16487     16490     16491     16488     16487     16490     16492
     16488     16487     16490     16493     16489     16487     16490     16491
     16489     16487     16490     16492     16489     16487     16490     16493
     16490     16493     16496     16497     16490     16493     16496     16498
     16490     16493     16496     16499     16491     16490     16493     16494
     16491     16490     16493     16495     16491     16490     16493     16496
     16492     16490     16493     16494     16492     16490     16493     16495
     16492     16490     16493     16496     16493     16496     16499     16500
     16493     16496     16499     16501     16494     16493     16496     16497
     16494     16493     16496     16498     16494     16493     16496     16499
     16495     16493     16496     16497     16495     16493     16496     16498
     16495     16493     16496     16499     16496     16499     16501     16502
     16496     16499     16501     16503     16497     16496     16499     16500
     16497     16496     16499     16501     16498     16496     16499     16500
     16498     16496     16499     16501     16499     16501     16503     16504
     16499     16501     16503     16505     16499     16501     16503     16506
     16500     16499     16501     16502     16500     16499     16501     16503
     16501     16503     16506     16507     16501     16503     16506     16508
     16501     16503     16506     16509     16502     16501     16503     16504
     16502     16501     16503     16505     16502     16501     16503     16506
     16503     16506     16509     16510     16503     16506     16509     16511
     16503     16506     16509     16512     16504     16503     16506     16507
     16504     16503     16506     16508     16504     16503     16506     16509
     16505     16503     16506     16507     16505     16503     16506     16508
     16505     16503     16506     16509     16506     16509     16512     16513
     16506     16509     16512     16514     16506     16509     16512     16515
     16507     16506     16509     16510     16507     16506     16509     16511
     16507     16506     16509     16512     16508     16506     16509     16510
     16508     16506     16509     16511     16508     16506     16509     16512
     16509     16512     16515     16516     16509     16512     16515     16517
     16509     16512     16515     16518     16510     16509     16512     16513
     16510     16509     16512     16514     16510     16509     16512     16515
     16511     16509     16512     16513     16511     16509     16512     16514
     16511     16509     16512     16515     16512     16515     16518     16519
     16512     16515     16518     16520     16512     16515     16518     16521
     16513     16512     16515     16516     16513     16512     16515     16517
     16513     16512     16515     16518     16514     16512     16515     16516
     16514     16512     16515     16517     16514     16512     16515     16518
     16515     16518     16521     16522     16515     16518     16521     16523
     16515     16518     16521     16524     16516     16515     16518     16519
     16516     16515     16518     16520     16516     16515     16518     16521
     16517     16515     16518     16519     16517     16515     16518     16520
     16517     16515     16518     16521     16518     16521     16524     16525
     16518     16521     16524     16526     16518     16521     16524     16527
     16519     16518     16521     16522     16519     16518     16521     16523
     16519     16518     16521     16524     16520     16518     16521     16522
     16520     16518     16521     16523     16520     16518     16521     16524
     16522     16521     16524     16525     16522     16521     16524     16526
     16522     16521     16524     16527     16523     16521     16524     16525
     16523     16521     16524     16526     16523     16521     16524     16527
     16528     16531     16534     16535     16528     16531     16534     16536
     16528     16531     16534     16537     16529     16528     16531     16532
     16529     16528     16531     16533     16529     16528     16531     16534
     16530     16528     16531     16532     16530     16528     16531     16533
     16530     16528     16531     16534     16531     16534     16537     16538
     16531     16534     16537     16539     16531     16534     16537     16540
     16532     16531     16534     16535     16532     16531     16534     16536
     16532     16531     16534     16537     16533     16531     16534     16535
     16533     16531     16534     16536     16533     16531     16534     16537
     16534     16537     16540     16541     16534     16537     16540     16542
     16534     16537     16540     16543     16535     16534     16537     16538
     16535     16534     16537     16539     16535     16534     16537     16540
     16536     16534     16537     16538     16536     16534     16537     16539
     16536     16534     16537     16540     16537     16540     16543     16544
     16537     16540     16543     16545     16537     16540     16543     16546
     16538     16537     16540     16541     16538     16537     16540     16542
     16538     16537     16540     16543     16539     16537     16540     16541
     16539     16537     16540     16542     16539     16537     16540     16543
     16540     16543     16546     16547     16540     16543     16546     16548
     16540     16543     16546     16549     16541     16540     16543     16544
     16541     16540     16543     16545     16541     16540     16543     16546
     16542     16540     16543     16544     16542     16540     16543     16545
     16542     16540     16543     16546     16543     16546     16549     16550
     16543     16546     16549     16551     16543     16546     16549     16552
     16544     16543     16546     16547     16544     16543     16546     16548
     16544     16543     16546     16549     16545     16543     16546     16547
     16545     16543     16546     16548     16545     16543     16546     16549
     16546     16549     16552     16553     16546     16549     16552     16554
     16546     16549     16552     16555     16547     16546     16549     16550
     16547     16546     16549     16551     16547     16546     16549     16552
     16548     16546     16549     16550     16548     16546     16549     16551
     16548     16546     16549     16552     16549     16552     16555     16556
     16549     16552     16555     16557     16549     16552     16555     16558
     16550     16549     16552     16553     16550     16549     16552     16554
     16550     16549     16552     16555     16551     16549     16552     16553
     16551     16549     16552     16554     16551     16549     16552     16555
     16552     16555     16558     16559     16552     16555     16558     16560
     16552     16555     16558     16561     16553     16552     16555     16556
     16553     16552     16555     16557     16553     16552     16555     16558
     16554     16552     16555     16556     16554     16552     16555     16557
     16554     16552     16555     16558     16555     16558     16561     16562
     16555     16558     16561     16563     16555     16558     16561     16564
     16556     16555     16558     16559     16556     16555     16558     16560
     16556     16555     16558     16561     16557     16555     16558     16559
     16557     16555     16558     16560     16557     16555     16558     16561
     16558     16561     16564     16565     16558     16561     16564     16566
     16558     16561     16564     16567     16559     16558     16561     16562
     16559     16558     16561     16563     16559     16558     16561     16564
     16560     16558     16561     16562     16560     16558     16561     16563
     16560     16558     16561     16564     16561     16564     16567     16568
     16561     16564     16567     16569     16561     16564     16567     16570
     16562     16561     16564     16565     16562     16561     16564     16566
     16562     16561     16564     16567     16563     16561     16564     16565
     16563     16561     16564     16566     16563     16561     16564     16567
     16565     16564     16567     16568     16565     16564     16567     16569
     16565     16564     16567     16570     16566     16564     16567     16568
     16566     16564     16567     16569     16566     16564     16567     16570
     16571     16572     16587     16588     16571     16572     16587     16589
     16571     16572     16587     16593     16572     16571     16575     16576
     16572     16571     16575     16577     16572     16571     16575     16578
     16572     16571     16579     16580     16572     16571     16579     16581
     16572     16571     16579     16582     16572     16571     16583     16584
     16572     16571     16583     16585     16572     16571     16583     16586
     16572     16587     16593     16590     16573     16572     16571     16575
     16573     16572     16571     16579     16573     16572     16571     16583
     16573     16572     16587     16588     16573     16572     16587     16589
     16573     16572     16587     16593     16574     16572     16571     16575
     16574     16572     16571     16579     16574     16572     16571     16583
     16574     16572     16587     16588     16574     16572     16587     16589
     16574     16572     16587     16593     16575     16571     16572     16587
     16575     16571     16579     16580     16575     16571     16579     16581
     16575     16571     16579     16582     16575     16571     16583     16584
     16575     16571     16583     16585     16575     16571     16583     16586
     16576     16575     16571     16579     16576     16575     16571     16583
     16577     16575     16571     16579     16577     16575     16571     16583
     16578     16575     16571     16579     16578     16575     16571     16583
     16579     16571     16572     16587     16579     16571     16583     16584
     16579     16571     16583     16585     16579     16571     16583     16586
     16580     16579     16571     16583     16581     16579     16571     16583
     16582     16579     16571     16583     16583     16571     16572     16587
     16587     16593     16590     16591     16587     16593     16590     16592
     16587     16593     16590     16594     16588     16587     16593     16590
     16589     16587     16593     16590     16590     16594     16595     16596
     16590     16594     16595     16597     16590     16594     16595     16598
     16591     16590     16594     16595     16592     16590     16594     16595
     16593     16590     16594     16595     16594     16595     16598     16599
     16594     16595     16598     16600     16594     16595     16598     16606
     16595     16598     16600     16601     16595     16598     16606     16607
     16595     16598     16606     16608     16595     16598     16606     16609
     16596     16595     16598     16599     16596     16595     16598     16600
     16596     16595     16598     16606     16597     16595     16598     16599
     16597     16595     16598     16600     16597     16595     16598     16606
     16598     16600     16601     16602     16598     16600     16601     16603
     16598     16606     16609     16610     16599     16598     16600     16601
     16599     16598     16606     16607     16599     16598     16606     16608
     16599     16598     16606     16609     16600     16598     16606     16607
     16600     16598     16606     16608     16600     16598     16606     16609
     16600     16601     16603     16604     16600     16601     16603     16605
     16600     16601     16603     16615     16601     16600     16598     16606
     16601     16603     16615     16616     16601     16603     16615     16617
     16601     16603     16615     16618     16602     16601     16603     16604
     16602     16601     16603     16605     16602     16601     16603     16615
     16603     16615     16618     16619     16603     16615     16618     16620
     16603     16615     16618     16621     16604     16603     16615     16616
     16604     16603     16615     16617     16604     16603     16615     16618
     16605     16603     16615     16616     16605     16603     16615     16617
     16605     16603     16615     16618     16606     16609     16610     16611
     16606     16609     16610     16612     16607     16606     16609     16610
     16608     16606     16609     16610     16609     16610     16612     16613
     16609     16610     16612     16614     16609     16610     16612     16662
     16610     16612     16662     16663     16610     16612     16662     16664
     16610     16612     16662     16665     16611     16610     16612     16613
     16611     16610     16612     16614     16611     16610     16612     16662
     16612     16662     16665     16666     16612     16662     16665     16667
     16612     16662     16665     16668     16613     16612     16662     16663
     16613     16612     16662     16664     16613     16612     16662     16665
     16614     16612     16662     16663     16614     16612     16662     16664
     16614     16612     16662     16665     16615     16618     16621     16622
     16615     16618     16621     16623     16615     16618     16621     16624
     16616     16615     16618     16619     16616     16615     16618     16620
     16616     16615     16618     16621     16617     16615     16618     16619
     16617     16615     16618     16620     16617     16615     16618     16621
     16618     16621     16624     16625     16618     16621     16624     16626
     16618     16621     16624     16627     16619     16618     16621     16622
     16619     16618     16621     16623     16619     16618     16621     16624
     16620     16618     16621     16622     16620     16618     16621     16623
     16620     16618     16621     16624     16621     16624     16627     16628
     16621     16624     16627     16629     16621     16624     16627     16630
     16622     16621     16624     16625     16622     16621     16624     16626
     16622     16621     16624     16627     16623     16621     16624     16625
     16623     16621     16624     16626     16623     16621     16624     16627
     16624     16627     16630     16631     16624     16627     16630     16632
     16624     16627     16630     16633     16625     16624     16627     16628
     16625     16624     16627     16629     16625     16624     16627     16630
     16626     16624     16627     16628     16626     16624     16627     16629
     16626     16624     16627     16630     16627     16630     16633     16634
     16627     16630     16633     16635     16628     16627     16630     16631
     16628     16627     16630     16632     16628     16627     16630     16633
     16629     16627     16630     16631     16629     16627     16630     16632
     16629     16627     16630     16633     16630     16633     16635     16636
     16630     16633     16635     16637     16631     16630     16633     16634
     16631     16630     16633     16635     16632     16630     16633     16634
     16632     16630     16633     16635     16633     16635     16637     16638
     16633     16635     16637     16639     16633     16635     16637     16640
     16634     16633     16635     16636     16634     16633     16635     16637
     16635     16637     16640     16641     16635     16637     16640     16642
     16635     16637     16640     16643     16636     16635     16637     16638
     16636     16635     16637     16639     16636     16635     16637     16640
     16637     16640     16643     16644     16637     16640     16643     16645
     16637     16640     16643     16646     16638     16637     16640     16641
     16638     16637     16640     16642     16638     16637     16640     16643
     16639     16637     16640     16641     16639     16637     16640     16642
     16639     16637     16640     16643     16640     16643     16646     16647
     16640     16643     16646     16648     16640     16643     16646     16649
     16641     16640     16643     16644     16641     16640     16643     16645
     16641     16640     16643     16646     16642     16640     16643     16644
     16642     16640     16643     16645     16642     16640     16643     16646
     16643     16646     16649     16650     16643     16646     16649     16651
     16643     16646     16649     16652     16644     16643     16646     16647
     16644     16643     16646     16648     16644     16643     16646     16649
     16645     16643     16646     16647     16645     16643     16646     16648
     16645     16643     16646     16649     16646     16649     16652     16653
     16646     16649     16652     16654     16646     16649     16652     16655
     16647     16646     16649     16650     16647     16646     16649     16651
     16647     16646     16649     16652     16648     16646     16649     16650
     16648     16646     16649     16651     16648     16646     16649     16652
     16649     16652     16655     16656     16649     16652     16655     16657
     16649     16652     16655     16658     16650     16649     16652     16653
     16650     16649     16652     16654     16650     16649     16652     16655
     16651     16649     16652     16653     16651     16649     16652     16654
     16651     16649     16652     16655     16652     16655     16658     16659
     16652     16655     16658     16660     16652     16655     16658     16661
     16653     16652     16655     16656     16653     16652     16655     16657
     16653     16652     16655     16658     16654     16652     16655     16656
     16654     16652     16655     16657     16654     16652     16655     16658
     16656     16655     16658     16659     16656     16655     16658     16660
     16656     16655     16658     16661     16657     16655     16658     16659
     16657     16655     16658     16660     16657     16655     16658     16661
     16662     16665     16668     16669     16662     16665     16668     16670
     16662     16665     16668     16671     16663     16662     16665     16666
     16663     16662     16665     16667     16663     16662     16665     16668
     16664     16662     16665     16666     16664     16662     16665     16667
     16664     16662     16665     16668     16665     16668     16671     16672
     16665     16668     16671     16673     16665     16668     16671     16674
     16666     16665     16668     16669     16666     16665     16668     16670
     16666     16665     16668     16671     16667     16665     16668     16669
     16667     16665     16668     16670     16667     16665     16668     16671
     16668     16671     16674     16675     16668     16671     16674     16676
     16668     16671     16674     16677     16669     16668     16671     16672
     16669     16668     16671     16673     16669     16668     16671     16674
     16670     16668     16671     16672     16670     16668     16671     16673
     16670     16668     16671     16674     16671     16674     16677     16678
     16671     16674     16677     16679     16671     16674     16677     16680
     16672     16671     16674     16675     16672     16671     16674     16676
     16672     16671     16674     16677     16673     16671     16674     16675
     16673     16671     16674     16676     16673     16671     16674     16677
     16674     16677     16680     16681     16674     16677     16680     16682
     16674     16677     16680     16683     16675     16674     16677     16678
     16675     16674     16677     16679     16675     16674     16677     16680
     16676     16674     16677     16678     16676     16674     16677     16679
     16676     16674     16677     16680     16677     16680     16683     16684
     16677     16680     16683     16685     16677     16680     16683     16686
     16678     16677     16680     16681     16678     16677     16680     16682
     16678     16677     16680     16683     16679     16677     16680     16681
     16679     16677     16680     16682     16679     16677     16680     16683
     16680     16683     16686     16687     16680     16683     16686     16688
     16680     16683     16686     16689     16681     16680     16683     16684
     16681     16680     16683     16685     16681     16680     16683     16686
     16682     16680     16683     16684     16682     16680     16683     16685
     16682     16680     16683     16686     16683     16686     16689     16690
     16683     16686     16689     16691     16683     16686     16689     16692
     16684     16683     16686     16687     16684     16683     16686     16688
     16684     16683     16686     16689     16685     16683     16686     16687
     16685     16683     16686     16688     16685     16683     16686     16689
     16686     16689     16692     16693     16686     16689     16692     16694
     16686     16689     16692     16695     16687     16686     16689     16690
     16687     16686     16689     16691     16687     16686     16689     16692
     16688     16686     16689     16690     16688     16686     16689     16691
     16688     16686     16689     16692     16689     16692     16695     16696
     16689     16692     16695     16697     16689     16692     16695     16698
     16690     16689     16692     16693     16690     16689     16692     16694
     16690     16689     16692     16695     16691     16689     16692     16693
     16691     16689     16692     16694     16691     16689     16692     16695
     16692     16695     16698     16699     16692     16695     16698     16700
     16692     16695     16698     16701     16693     16692     16695     16696
     16693     16692     16695     16697     16693     16692     16695     16698
     16694     16692     16695     16696     16694     16692     16695     16697
     16694     16692     16695     16698     16695     16698     16701     16702
     16695     16698     16701     16703     16695     16698     16701     16704
     16696     16695     16698     16699     16696     16695     16698     16700
     16696     16695     16698     16701     16697     16695     16698     16699
     16697     16695     16698     16700     16697     16695     16698     16701
     16699     16698     16701     16702     16699     16698     16701     16703
     16699     16698     16701     16704     16700     16698     16701     16702
     16700     16698     16701     16703     16700     16698     16701     16704
     16705     16706     16721     16722     16705     16706     16721     16723
     16705     16706     16721     16727     16706     16705     16709     16710
     16706     16705     16709     16711     16706     16705     16709     16712
     16706     16705     16713     16714     16706     16705     16713     16715
     16706     16705     16713     16716     16706     16705     16717     16718
     16706     16705     16717     16719     16706     16705     16717     16720
     16706     16721     16727     16724     16707     16706     16705     16709
     16707     16706     16705     16713     16707     16706     16705     16717
     16707     16706     16721     16722     16707     16706     16721     16723
     16707     16706     16721     16727     16708     16706     16705     16709
     16708     16706     16705     16713     16708     16706     16705     16717
     16708     16706     16721     16722     16708     16706     16721     16723
     16708     16706     16721     16727     16709     16705     16706     16721
     16709     16705     16713     16714     16709     16705     16713     16715
     16709     16705     16713     16716     16709     16705     16717     16718
     16709     16705     16717     16719     16709     16705     16717     16720
     16710     16709     16705     16713     16710     16709     16705     16717
     16711     16709     16705     16713     16711     16709     16705     16717
     16712     16709     16705     16713     16712     16709     16705     16717
     16713     16705     16706     16721     16713     16705     16717     16718
     16713     16705     16717     16719     16713     16705     16717     16720
     16714     16713     16705     16717     16715     16713     16705     16717
     16716     16713     16705     16717     16717     16705     16706     16721
     16721     16727     16724     16725     16721     16727     16724     16726
     16721     16727     16724     16728     16722     16721     16727     16724
     16723     16721     16727     16724     16724     16728     16729     16730
     16724     16728     16729     16731     16724     16728     16729     16732
     16725     16724     16728     16729     16726     16724     16728     16729
     16727     16724     16728     16729     16728     16729     16732     16733
     16728     16729     16732     16734     16728     16729     16732     16740
     16729     16732     16734     16735     16729     16732     16740     16741
     16729     16732     16740     16742     16729     16732     16740     16743
     16730     16729     16732     16733     16730     16729     16732     16734
     16730     16729     16732     16740     16731     16729     16732     16733
     16731     16729     16732     16734     16731     16729     16732     16740
     16732     16734     16735     16736     16732     16734     16735     16737
     16732     16740     16743     16744     16733     16732     16734     16735
     16733     16732     16740     16741     16733     16732     16740     16742
     16733     16732     16740     16743     16734     16732     16740     16741
     16734     16732     16740     16742     16734     16732     16740     16743
     16734     16735     16737     16738     16734     16735     16737     16739
     16734     16735     16737     16749     16735     16734     16732     16740
     16735     16737     16749     16750     16735     16737     16749     16751
     16735     16737     16749     16752     16736     16735     16737     16738
     16736     16735     16737     16739     16736     16735     16737     16749
     16737     16749     16752     16753     16737     16749     16752     16754
     16737     16749     16752     16755     16738     16737     16749     16750
     16738     16737     16749     16751     16738     16737     16749     16752
     16739     16737     16749     16750     16739     16737     16749     16751
     16739     16737     16749     16752     16740     16743     16744     16745
     16740     16743     16744     16746     16741     16740     16743     16744
     16742     16740     16743     16744     16743     16744     16746     16747
     16743     16744     16746     16748     16743     16744     16746     16796
     16744     16746     16796     16797     16744     16746     16796     16798
     16744     16746     16796     16799     16745     16744     16746     16747
     16745     16744     16746     16748     16745     16744     16746     16796
     16746     16796     16799     16800     16746     16796     16799     16801
     16746     16796     16799     16802     16747     16746     16796     16797
     16747     16746     16796     16798     16747     16746     16796     16799
     16748     16746     16796     16797     16748     16746     16796     16798
     16748     16746     16796     16799     16749     16752     16755     16756
     16749     16752     16755     16757     16749     16752     16755     16758
     16750     16749     16752     16753     16750     16749     16752     16754
     16750     16749     16752     16755     16751     16749     16752     16753
     16751     16749     16752     16754     16751     16749     16752     16755
     16752     16755     16758     16759     16752     16755     16758     16760
     16752     16755     16758     16761     16753     16752     16755     16756
     16753     16752     16755     16757     16753     16752     16755     16758
     16754     16752     16755     16756     16754     16752     16755     16757
     16754     16752     16755     16758     16755     16758     16761     16762
     16755     16758     16761     16763     16755     16758     16761     16764
     16756     16755     16758     16759     16756     16755     16758     16760
     16756     16755     16758     16761     16757     16755     16758     16759
     16757     16755     16758     16760     16757     16755     16758     16761
     16758     16761     16764     16765     16758     16761     16764     16766
     16758     16761     16764     16767     16759     16758     16761     16762
     16759     16758     16761     16763     16759     16758     16761     16764
     16760     16758     16761     16762     16760     16758     16761     16763
     16760     16758     16761     16764     16761     16764     16767     16768
     16761     16764     16767     16769     16762     16761     16764     16765
     16762     16761     16764     16766     16762     16761     16764     16767
     16763     16761     16764     16765     16763     16761     16764     16766
     16763     16761     16764     16767     16764     16767     16769     16770
     16764     16767     16769     16771     16765     16764     16767     16768
     16765     16764     16767     16769     16766     16764     16767     16768
     16766     16764     16767     16769     16767     16769     16771     16772
     16767     16769     16771     16773     16767     16769     16771     16774
     16768     16767     16769     16770     16768     16767     16769     16771
     16769     16771     16774     16775     16769     16771     16774     16776
     16769     16771     16774     16777     16770     16769     16771     16772
     16770     16769     16771     16773     16770     16769     16771     16774
     16771     16774     16777     16778     16771     16774     16777     16779
     16771     16774     16777     16780     16772     16771     16774     16775
     16772     16771     16774     16776     16772     16771     16774     16777
     16773     16771     16774     16775     16773     16771     16774     16776
     16773     16771     16774     16777     16774     16777     16780     16781
     16774     16777     16780     16782     16774     16777     16780     16783
     16775     16774     16777     16778     16775     16774     16777     16779
     16775     16774     16777     16780     16776     16774     16777     16778
     16776     16774     16777     16779     16776     16774     16777     16780
     16777     16780     16783     16784     16777     16780     16783     16785
     16777     16780     16783     16786     16778     16777     16780     16781
     16778     16777     16780     16782     16778     16777     16780     16783
     16779     16777     16780     16781     16779     16777     16780     16782
     16779     16777     16780     16783     16780     16783     16786     16787
     16780     16783     16786     16788     16780     16783     16786     16789
     16781     16780     16783     16784     16781     16780     16783     16785
     16781     16780     16783     16786     16782     16780     16783     16784
     16782     16780     16783     16785     16782     16780     16783     16786
     16783     16786     16789     16790     16783     16786     16789     16791
     16783     16786     16789     16792     16784     16783     16786     16787
     16784     16783     16786     16788     16784     16783     16786     16789
     16785     16783     16786     16787     16785     16783     16786     16788
     16785     16783     16786     16789     16786     16789     16792     16793
     16786     16789     16792     16794     16786     16789     16792     16795
     16787     16786     16789     16790     16787     16786     16789     16791
     16787     16786     16789     16792     16788     16786     16789     16790
     16788     16786     16789     16791     16788     16786     16789     16792
     16790     16789     16792     16793     16790     16789     16792     16794
     16790     16789     16792     16795     16791     16789     16792     16793
     16791     16789     16792     16794     16791     16789     16792     16795
     16796     16799     16802     16803     16796     16799     16802     16804
     16796     16799     16802     16805     16797     16796     16799     16800
     16797     16796     16799     16801     16797     16796     16799     16802
     16798     16796     16799     16800     16798     16796     16799     16801
     16798     16796     16799     16802     16799     16802     16805     16806
     16799     16802     16805     16807     16799     16802     16805     16808
     16800     16799     16802     16803     16800     16799     16802     16804
     16800     16799     16802     16805     16801     16799     16802     16803
     16801     16799     16802     16804     16801     16799     16802     16805
     16802     16805     16808     16809     16802     16805     16808     16810
     16802     16805     16808     16811     16803     16802     16805     16806
     16803     16802     16805     16807     16803     16802     16805     16808
     16804     16802     16805     16806     16804     16802     16805     16807
     16804     16802     16805     16808     16805     16808     16811     16812
     16805     16808     16811     16813     16805     16808     16811     16814
     16806     16805     16808     16809     16806     16805     16808     16810
     16806     16805     16808     16811     16807     16805     16808     16809
     16807     16805     16808     16810     16807     16805     16808     16811
     16808     16811     16814     16815     16808     16811     16814     16816
     16808     16811     16814     16817     16809     16808     16811     16812
     16809     16808     16811     16813     16809     16808     16811     16814
     16810     16808     16811     16812     16810     16808     16811     16813
     16810     16808     16811     16814     16811     16814     16817     16818
     16811     16814     16817     16819     16811     16814     16817     16820
     16812     16811     16814     16815     16812     16811     16814     16816
     16812     16811     16814     16817     16813     16811     16814     16815
     16813     16811     16814     16816     16813     16811     16814     16817
     16814     16817     16820     16821     16814     16817     16820     16822
     16814     16817     16820     16823     16815     16814     16817     16818
     16815     16814     16817     16819     16815     16814     16817     16820
     16816     16814     16817     16818     16816     16814     16817     16819
     16816     16814     16817     16820     16817     16820     16823     16824
     16817     16820     16823     16825     16817     16820     16823     16826
     16818     16817     16820     16821     16818     16817     16820     16822
     16818     16817     16820     16823     16819     16817     16820     16821
     16819     16817     16820     16822     16819     16817     16820     16823
     16820     16823     16826     16827     16820     16823     16826     16828
     16820     16823     16826     16829     16821     16820     16823     16824
     16821     16820     16823     16825     16821     16820     16823     16826
     16822     16820     16823     16824     16822     16820     16823     16825
     16822     16820     16823     16826     16823     16826     16829     16830
     16823     16826     16829     16831     16823     16826     16829     16832
     16824     16823     16826     16827     16824     16823     16826     16828
     16824     16823     16826     16829     16825     16823     16826     16827
     16825     16823     16826     16828     16825     16823     16826     16829
     16826     16829     16832     16833     16826     16829     16832     16834
     16826     16829     16832     16835     16827     16826     16829     16830
     16827     16826     16829     16831     16827     16826     16829     16832
     16828     16826     16829     16830     16828     16826     16829     16831
     16828     16826     16829     16832     16829     16832     16835     16836
     16829     16832     16835     16837     16829     16832     16835     16838
     16830     16829     16832     16833     16830     16829     16832     16834
     16830     16829     16832     16835     16831     16829     16832     16833
     16831     16829     16832     16834     16831     16829     16832     16835
     16833     16832     16835     16836     16833     16832     16835     16837
     16833     16832     16835     16838     16834     16832     16835     16836
     16834     16832     16835     16837     16834     16832     16835     16838
     16839     16840     16855     16856     16839     16840     16855     16857
     16839     16840     16855     16861     16840     16839     16843     16844
     16840     16839     16843     16845     16840     16839     16843     16846
     16840     16839     16847     16848     16840     16839     16847     16849
     16840     16839     16847     16850     16840     16839     16851     16852
     16840     16839     16851     16853     16840     16839     16851     16854
     16840     16855     16861     16858     16841     16840     16839     16843
     16841     16840     16839     16847     16841     16840     16839     16851
     16841     16840     16855     16856     16841     16840     16855     16857
     16841     16840     16855     16861     16842     16840     16839     16843
     16842     16840     16839     16847     16842     16840     16839     16851
     16842     16840     16855     16856     16842     16840     16855     16857
     16842     16840     16855     16861     16843     16839     16840     16855
     16843     16839     16847     16848     16843     16839     16847     16849
     16843     16839     16847     16850     16843     16839     16851     16852
     16843     16839     16851     16853     16843     16839     16851     16854
     16844     16843     16839     16847     16844     16843     16839     16851
     16845     16843     16839     16847     16845     16843     16839     16851
     16846     16843     16839     16847     16846     16843     16839     16851
     16847     16839     16840     16855     16847     16839     16851     16852
     16847     16839     16851     16853     16847     16839     16851     16854
     16848     16847     16839     16851     16849     16847     16839     16851
     16850     16847     16839     16851     16851     16839     16840     16855
     16855     16861     16858     16859     16855     16861     16858     16860
     16855     16861     16858     16862     16856     16855     16861     16858
     16857     16855     16861     16858     16858     16862     16863     16864
     16858     16862     16863     16865     16858     16862     16863     16866
     16859     16858     16862     16863     16860     16858     16862     16863
     16861     16858     16862     16863     16862     16863     16866     16867
     16862     16863     16866     16868     16862     16863     16866     16874
     16863     16866     16868     16869     16863     16866     16874     16875
     16863     16866     16874     16876     16863     16866     16874     16877
     16864     16863     16866     16867     16864     16863     16866     16868
     16864     16863     16866     16874     16865     16863     16866     16867
     16865     16863     16866     16868     16865     16863     16866     16874
     16866     16868     16869     16870     16866     16868     16869     16871
     16866     16874     16877     16878     16867     16866     16868     16869
     16867     16866     16874     16875     16867     16866     16874     16876
     16867     16866     16874     16877     16868     16866     16874     16875
     16868     16866     16874     16876     16868     16866     16874     16877
     16868     16869     16871     16872     16868     16869     16871     16873
     16868     16869     16871     16883     16869     16868     16866     16874
     16869     16871     16883     16884     16869     16871     16883     16885
     16869     16871     16883     16886     16870     16869     16871     16872
     16870     16869     16871     16873     16870     16869     16871     16883
     16871     16883     16886     16887     16871     16883     16886     16888
     16871     16883     16886     16889     16872     16871     16883     16884
     16872     16871     16883     16885     16872     16871     16883     16886
     16873     16871     16883     16884     16873     16871     16883     16885
     16873     16871     16883     16886     16874     16877     16878     16879
     16874     16877     16878     16880     16875     16874     16877     16878
     16876     16874     16877     16878     16877     16878     16880     16881
     16877     16878     16880     16882     16877     16878     16880     16930
     16878     16880     16930     16931     16878     16880     16930     16932
     16878     16880     16930     16933     16879     16878     16880     16881
     16879     16878     16880     16882     16879     16878     16880     16930
     16880     16930     16933     16934     16880     16930     16933     16935
     16880     16930     16933     16936     16881     16880     16930     16931
     16881     16880     16930     16932     16881     16880     16930     16933
     16882     16880     16930     16931     16882     16880     16930     16932
     16882     16880     16930     16933     16883     16886     16889     16890
     16883     16886     16889     16891     16883     16886     16889     16892
     16884     16883     16886     16887     16884     16883     16886     16888
     16884     16883     16886     16889     16885     16883     16886     16887
     16885     16883     16886     16888     16885     16883     16886     16889
     16886     16889     16892     16893     16886     16889     16892     16894
     16886     16889     16892     16895     16887     16886     16889     16890
     16887     16886     16889     16891     16887     16886     16889     16892
     16888     16886     16889     16890     16888     16886     16889     16891
     16888     16886     16889     16892     16889     16892     16895     16896
     16889     16892     16895     16897     16889     16892     16895     16898
     16890     16889     16892     16893     16890     16889     16892     16894
     16890     16889     16892     16895     16891     16889     16892     16893
     16891     16889     16892     16894     16891     16889     16892     16895
     16892     16895     16898     16899     16892     16895     16898     16900
     16892     16895     16898     16901     16893     16892     16895     16896
     16893     16892     16895     16897     16893     16892     16895     16898
     16894     16892     16895     16896     16894     16892     16895     16897
     16894     16892     16895     16898     16895     16898     16901     16902
     16895     16898     16901     16903     16896     16895     16898     16899
     16896     16895     16898     16900     16896     16895     16898     16901
     16897     16895     16898     16899     16897     16895     16898     16900
     16897     16895     16898     16901     16898     16901     16903     16904
     16898     16901     16903     16905     16899     16898     16901     16902
     16899     16898     16901     16903     16900     16898     16901     16902
     16900     16898     16901     16903     16901     16903     16905     16906
     16901     16903     16905     16907     16901     16903     16905     16908
     16902     16901     16903     16904     16902     16901     16903     16905
     16903     16905     16908     16909     16903     16905     16908     16910
     16903     16905     16908     16911     16904     16903     16905     16906
     16904     16903     16905     16907     16904     16903     16905     16908
     16905     16908     16911     16912     16905     16908     16911     16913
     16905     16908     16911     16914     16906     16905     16908     16909
     16906     16905     16908     16910     16906     16905     16908     16911
     16907     16905     16908     16909     16907     16905     16908     16910
     16907     16905     16908     16911     16908     16911     16914     16915
     16908     16911     16914     16916     16908     16911     16914     16917
     16909     16908     16911     16912     16909     16908     16911     16913
     16909     16908     16911     16914     16910     16908     16911     16912
     16910     16908     16911     16913     16910     16908     16911     16914
     16911     16914     16917     16918     16911     16914     16917     16919
     16911     16914     16917     16920     16912     16911     16914     16915
     16912     16911     16914     16916     16912     16911     16914     16917
     16913     16911     16914     16915     16913     16911     16914     16916
     16913     16911     16914     16917     16914     16917     16920     16921
     16914     16917     16920     16922     16914     16917     16920     16923
     16915     16914     16917     16918     16915     16914     16917     16919
     16915     16914     16917     16920     16916     16914     16917     16918
     16916     16914     16917     16919     16916     16914     16917     16920
     16917     16920     16923     16924     16917     16920     16923     16925
     16917     16920     16923     16926     16918     16917     16920     16921
     16918     16917     16920     16922     16918     16917     16920     16923
     16919     16917     16920     16921     16919     16917     16920     16922
     16919     16917     16920     16923     16920     16923     16926     16927
     16920     16923     16926     16928     16920     16923     16926     16929
     16921     16920     16923     16924     16921     16920     16923     16925
     16921     16920     16923     16926     16922     16920     16923     16924
     16922     16920     16923     16925     16922     16920     16923     16926
     16924     16923     16926     16927     16924     16923     16926     16928
     16924     16923     16926     16929     16925     16923     16926     16927
     16925     16923     16926     16928     16925     16923     16926     16929
     16930     16933     16936     16937     16930     16933     16936     16938
     16930     16933     16936     16939     16931     16930     16933     16934
     16931     16930     16933     16935     16931     16930     16933     16936
     16932     16930     16933     16934     16932     16930     16933     16935
     16932     16930     16933     16936     16933     16936     16939     16940
     16933     16936     16939     16941     16933     16936     16939     16942
     16934     16933     16936     16937     16934     16933     16936     16938
     16934     16933     16936     16939     16935     16933     16936     16937
     16935     16933     16936     16938     16935     16933     16936     16939
     16936     16939     16942     16943     16936     16939     16942     16944
     16936     16939     16942     16945     16937     16936     16939     16940
     16937     16936     16939     16941     16937     16936     16939     16942
     16938     16936     16939     16940     16938     16936     16939     16941
     16938     16936     16939     16942     16939     16942     16945     16946
     16939     16942     16945     16947     16939     16942     16945     16948
     16940     16939     16942     16943     16940     16939     16942     16944
     16940     16939     16942     16945     16941     16939     16942     16943
     16941     16939     16942     16944     16941     16939     16942     16945
     16942     16945     16948     16949     16942     16945     16948     16950
     16942     16945     16948     16951     16943     16942     16945     16946
     16943     16942     16945     16947     16943     16942     16945     16948
     16944     16942     16945     16946     16944     16942     16945     16947
     16944     16942     16945     16948     16945     16948     16951     16952
     16945     16948     16951     16953     16945     16948     16951     16954
     16946     16945     16948     16949     16946     16945     16948     16950
     16946     16945     16948     16951     16947     16945     16948     16949
     16947     16945     16948     16950     16947     16945     16948     16951
     16948     16951     16954     16955     16948     16951     16954     16956
     16948     16951     16954     16957     16949     16948     16951     16952
     16949     16948     16951     16953     16949     16948     16951     16954
     16950     16948     16951     16952     16950     16948     16951     16953
     16950     16948     16951     16954     16951     16954     16957     16958
     16951     16954     16957     16959     16951     16954     16957     16960
     16952     16951     16954     16955     16952     16951     16954     16956
     16952     16951     16954     16957     16953     16951     16954     16955
     16953     16951     16954     16956     16953     16951     16954     16957
     16954     16957     16960     16961     16954     16957     16960     16962
     16954     16957     16960     16963     16955     16954     16957     16958
     16955     16954     16957     16959     16955     16954     16957     16960
     16956     16954     16957     16958     16956     16954     16957     16959
     16956     16954     16957     16960     16957     16960     16963     16964
     16957     16960     16963     16965     16957     16960     16963     16966
     16958     16957     16960     16961     16958     16957     16960     16962
     16958     16957     16960     16963     16959     16957     16960     16961
     16959     16957     16960     16962     16959     16957     16960     16963
     16960     16963     16966     16967     16960     16963     16966     16968
     16960     16963     16966     16969     16961     16960     16963     16964
     16961     16960     16963     16965     16961     16960     16963     16966
     16962     16960     16963     16964     16962     16960     16963     16965
     16962     16960     16963     16966     16963     16966     16969     16970
     16963     16966     16969     16971     16963     16966     16969     16972
     16964     16963     16966     16967     16964     16963     16966     16968
     16964     16963     16966     16969     16965     16963     16966     16967
     16965     16963     16966     16968     16965     16963     16966     16969
     16967     16966     16969     16970     16967     16966     16969     16971
     16967     16966     16969     16972     16968     16966     16969     16970
     16968     16966     16969     16971     16968     16966     16969     16972
     16973     16974     16989     16990     16973     16974     16989     16991
     16973     16974     16989     16995     16974     16973     16977     16978
     16974     16973     16977     16979     16974     16973     16977     16980
     16974     16973     16981     16982     16974     16973     16981     16983
     16974     16973     16981     16984     16974     16973     16985     16986
     16974     16973     16985     16987     16974     16973     16985     16988
     16974     16989     16995     16992     16975     16974     16973     16977
     16975     16974     16973     16981     16975     16974     16973     16985
     16975     16974     16989     16990     16975     16974     16989     16991
     16975     16974     16989     16995     16976     16974     16973     16977
     16976     16974     16973     16981     16976     16974     16973     16985
     16976     16974     16989     16990     16976     16974     16989     16991
     16976     16974     16989     16995     16977     16973     16974     16989
     16977     16973     16981     16982     16977     16973     16981     16983
     16977     16973     16981     16984     16977     16973     16985     16986
     16977     16973     16985     16987     16977     16973     16985     16988
     16978     16977     16973     16981     16978     16977     16973     16985
     16979     16977     16973     16981     16979     16977     16973     16985
     16980     16977     16973     16981     16980     16977     16973     16985
     16981     16973     16974     16989     16981     16973     16985     16986
     16981     16973     16985     16987     16981     16973     16985     16988
     16982     16981     16973     16985     16983     16981     16973     16985
     16984     16981     16973     16985     16985     16973     16974     16989
     16989     16995     16992     16993     16989     16995     16992     16994
     16989     16995     16992     16996     16990     16989     16995     16992
     16991     16989     16995     16992     16992     16996     16997     16998
     16992     16996     16997     16999     16992     16996     16997     17000
     16993     16992     16996     16997     16994     16992     16996     16997
     16995     16992     16996     16997     16996     16997     17000     17001
     16996     16997     17000     17002     16996     16997     17000     17008
     16997     17000     17002     17003     16997     17000     17008     17009
     16997     17000     17008     17010     16997     17000     17008     17011
     16998     16997     17000     17001     16998     16997     17000     17002
     16998     16997     17000     17008     16999     16997     17000     17001
     16999     16997     17000     17002     16999     16997     17000     17008
     17000     17002     17003     17004     17000     17002     17003     17005
     17000     17008     17011     17012     17001     17000     17002     17003
     17001     17000     17008     17009     17001     17000     17008     17010
     17001     17000     17008     17011     17002     17000     17008     17009
     17002     17000     17008     17010     17002     17000     17008     17011
     17002     17003     17005     17006     17002     17003     17005     17007
     17002     17003     17005     17017     17003     17002     17000     17008
     17003     17005     17017     17018     17003     17005     17017     17019
     17003     17005     17017     17020     17004     17003     17005     17006
     17004     17003     17005     17007     17004     17003     17005     17017
     17005     17017     17020     17021     17005     17017     17020     17022
     17005     17017     17020     17023     17006     17005     17017     17018
     17006     17005     17017     17019     17006     17005     17017     17020
     17007     17005     17017     17018     17007     17005     17017     17019
     17007     17005     17017     17020     17008     17011     17012     17013
     17008     17011     17012     17014     17009     17008     17011     17012
     17010     17008     17011     17012     17011     17012     17014     17015
     17011     17012     17014     17016     17011     17012     17014     17064
     17012     17014     17064     17065     17012     17014     17064     17066
     17012     17014     17064     17067     17013     17012     17014     17015
     17013     17012     17014     17016     17013     17012     17014     17064
     17014     17064     17067     17068     17014     17064     17067     17069
     17014     17064     17067     17070     17015     17014     17064     17065
     17015     17014     17064     17066     17015     17014     17064     17067
     17016     17014     17064     17065     17016     17014     17064     17066
     17016     17014     17064     17067     17017     17020     17023     17024
     17017     17020     17023     17025     17017     17020     17023     17026
     17018     17017     17020     17021     17018     17017     17020     17022
     17018     17017     17020     17023     17019     17017     17020     17021
     17019     17017     17020     17022     17019     17017     17020     17023
     17020     17023     17026     17027     17020     17023     17026     17028
     17020     17023     17026     17029     17021     17020     17023     17024
     17021     17020     17023     17025     17021     17020     17023     17026
     17022     17020     17023     17024     17022     17020     17023     17025
     17022     17020     17023     17026     17023     17026     17029     17030
     17023     17026     17029     17031     17023     17026     17029     17032
     17024     17023     17026     17027     17024     17023     17026     17028
     17024     17023     17026     17029     17025     17023     17026     17027
     17025     17023     17026     17028     17025     17023     17026     17029
     17026     17029     17032     17033     17026     17029     17032     17034
     17026     17029     17032     17035     17027     17026     17029     17030
     17027     17026     17029     17031     17027     17026     17029     17032
     17028     17026     17029     17030     17028     17026     17029     17031
     17028     17026     17029     17032     17029     17032     17035     17036
     17029     17032     17035     17037     17030     17029     17032     17033
     17030     17029     17032     17034     17030     17029     17032     17035
     17031     17029     17032     17033     17031     17029     17032     17034
     17031     17029     17032     17035     17032     17035     17037     17038
     17032     17035     17037     17039     17033     17032     17035     17036
     17033     17032     17035     17037     17034     17032     17035     17036
     17034     17032     17035     17037     17035     17037     17039     17040
     17035     17037     17039     17041     17035     17037     17039     17042
     17036     17035     17037     17038     17036     17035     17037     17039
     17037     17039     17042     17043     17037     17039     17042     17044
     17037     17039     17042     17045     17038     17037     17039     17040
     17038     17037     17039     17041     17038     17037     17039     17042
     17039     17042     17045     17046     17039     17042     17045     17047
     17039     17042     17045     17048     17040     17039     17042     17043
     17040     17039     17042     17044     17040     17039     17042     17045
     17041     17039     17042     17043     17041     17039     17042     17044
     17041     17039     17042     17045     17042     17045     17048     17049
     17042     17045     17048     17050     17042     17045     17048     17051
     17043     17042     17045     17046     17043     17042     17045     17047
     17043     17042     17045     17048     17044     17042     17045     17046
     17044     17042     17045     17047     17044     17042     17045     17048
     17045     17048     17051     17052     17045     17048     17051     17053
     17045     17048     17051     17054     17046     17045     17048     17049
     17046     17045     17048     17050     17046     17045     17048     17051
     17047     17045     17048     17049     17047     17045     17048     17050
     17047     17045     17048     17051     17048     17051     17054     17055
     17048     17051     17054     17056     17048     17051     17054     17057
     17049     17048     17051     17052     17049     17048     17051     17053
     17049     17048     17051     17054     17050     17048     17051     17052
     17050     17048     17051     17053     17050     17048     17051     17054
     17051     17054     17057     17058     17051     17054     17057     17059
     17051     17054     17057     17060     17052     17051     17054     17055
     17052     17051     17054     17056     17052     17051     17054     17057
     17053     17051     17054     17055     17053     17051     17054     17056
     17053     17051     17054     17057     17054     17057     17060     17061
     17054     17057     17060     17062     17054     17057     17060     17063
     17055     17054     17057     17058     17055     17054     17057     17059
     17055     17054     17057     17060     17056     17054     17057     17058
     17056     17054     17057     17059     17056     17054     17057     17060
     17058     17057     17060     17061     17058     17057     17060     17062
     17058     17057     17060     17063     17059     17057     17060     17061
     17059     17057     17060     17062     17059     17057     17060     17063
     17064     17067     17070     17071     17064     17067     17070     17072
     17064     17067     17070     17073     17065     17064     17067     17068
     17065     17064     17067     17069     17065     17064     17067     17070
     17066     17064     17067     17068     17066     17064     17067     17069
     17066     17064     17067     17070     17067     17070     17073     17074
     17067     17070     17073     17075     17067     17070     17073     17076
     17068     17067     17070     17071     17068     17067     17070     17072
     17068     17067     17070     17073     17069     17067     17070     17071
     17069     17067     17070     17072     17069     17067     17070     17073
     17070     17073     17076     17077     17070     17073     17076     17078
     17070     17073     17076     17079     17071     17070     17073     17074
     17071     17070     17073     17075     17071     17070     17073     17076
     17072     17070     17073     17074     17072     17070     17073     17075
     17072     17070     17073     17076     17073     17076     17079     17080
     17073     17076     17079     17081     17073     17076     17079     17082
     17074     17073     17076     17077     17074     17073     17076     17078
     17074     17073     17076     17079     17075     17073     17076     17077
     17075     17073     17076     17078     17075     17073     17076     17079
     17076     17079     17082     17083     17076     17079     17082     17084
     17076     17079     17082     17085     17077     17076     17079     17080
     17077     17076     17079     17081     17077     17076     17079     17082
     17078     17076     17079     17080     17078     17076     17079     17081
     17078     17076     17079     17082     17079     17082     17085     17086
     17079     17082     17085     17087     17079     17082     17085     17088
     17080     17079     17082     17083     17080     17079     17082     17084
     17080     17079     17082     17085     17081     17079     17082     17083
     17081     17079     17082     17084     17081     17079     17082     17085
     17082     17085     17088     17089     17082     17085     17088     17090
     17082     17085     17088     17091     17083     17082     17085     17086
     17083     17082     17085     17087     17083     17082     17085     17088
     17084     17082     17085     17086     17084     17082     17085     17087
     17084     17082     17085     17088     17085     17088     17091     17092
     17085     17088     17091     17093     17085     17088     17091     17094
     17086     17085     17088     17089     17086     17085     17088     17090
     17086     17085     17088     17091     17087     17085     17088     17089
     17087     17085     17088     17090     17087     17085     17088     17091
     17088     17091     17094     17095     17088     17091     17094     17096
     17088     17091     17094     17097     17089     17088     17091     17092
     17089     17088     17091     17093     17089     17088     17091     17094
     17090     17088     17091     17092     17090     17088     17091     17093
     17090     17088     17091     17094     17091     17094     17097     17098
     17091     17094     17097     17099     17091     17094     17097     17100
     17092     17091     17094     17095     17092     17091     17094     17096
     17092     17091     17094     17097     17093     17091     17094     17095
     17093     17091     17094     17096     17093     17091     17094     17097
     17094     17097     17100     17101     17094     17097     17100     17102
     17094     17097     17100     17103     17095     17094     17097     17098
     17095     17094     17097     17099     17095     17094     17097     17100
     17096     17094     17097     17098     17096     17094     17097     17099
     17096     17094     17097     17100     17097     17100     17103     17104
     17097     17100     17103     17105     17097     17100     17103     17106
     17098     17097     17100     17101     17098     17097     17100     17102
     17098     17097     17100     17103     17099     17097     17100     17101
     17099     17097     17100     17102     17099     17097     17100     17103
     17101     17100     17103     17104     17101     17100     17103     17105
     17101     17100     17103     17106     17102     17100     17103     17104
     17102     17100     17103     17105     17102     17100     17103     17106
     17107     17108     17123     17124     17107     17108     17123     17125
     17107     17108     17123     17129     17108     17107     17111     17112
     17108     17107     17111     17113     17108     17107     17111     17114
     17108     17107     17115     17116     17108     17107     17115     17117
     17108     17107     17115     17118     17108     17107     17119     17120
     17108     17107     17119     17121     17108     17107     17119     17122
     17108     17123     17129     17126     17109     17108     17107     17111
     17109     17108     17107     17115     17109     17108     17107     17119
     17109     17108     17123     17124     17109     17108     17123     17125
     17109     17108     17123     17129     17110     17108     17107     17111
     17110     17108     17107     17115     17110     17108     17107     17119
     17110     17108     17123     17124     17110     17108     17123     17125
     17110     17108     17123     17129     17111     17107     17108     17123
     17111     17107     17115     17116     17111     17107     17115     17117
     17111     17107     17115     17118     17111     17107     17119     17120
     17111     17107     17119     17121     17111     17107     17119     17122
     17112     17111     17107     17115     17112     17111     17107     17119
     17113     17111     17107     17115     17113     17111     17107     17119
     17114     17111     17107     17115     17114     17111     17107     17119
     17115     17107     17108     17123     17115     17107     17119     17120
     17115     17107     17119     17121     17115     17107     17119     17122
     17116     17115     17107     17119     17117     17115     17107     17119
     17118     17115     17107     17119     17119     17107     17108     17123
     17123     17129     17126     17127     17123     17129     17126     17128
     17123     17129     17126     17130     17124     17123     17129     17126
     17125     17123     17129     17126     17126     17130     17131     17132
     17126     17130     17131     17133     17126     17130     17131     17134
     17127     17126     17130     17131     17128     17126     17130     17131
     17129     17126     17130     17131     17130     17131     17134     17135
     17130     17131     17134     17136     17130     17131     17134     17142
     17131     17134     17136     17137     17131     17134     17142     17143
     17131     17134     17142     17144     17131     17134     17142     17145
     17132     17131     17134     17135     17132     17131     17134     17136
     17132     17131     17134     17142     17133     17131     17134     17135
     17133     17131     17134     17136     17133     17131     17134     17142
     17134     17136     17137     17138     17134     17136     17137     17139
     17134     17142     17145     17146     17135     17134     17136     17137
     17135     17134     17142     17143     17135     17134     17142     17144
     17135     17134     17142     17145     17136     17134     17142     17143
     17136     17134     17142     17144     17136     17134     17142     17145
     17136     17137     17139     17140     17136     17137     17139     17141
     17136     17137     17139     17151     17137     17136     17134     17142
     17137     17139     17151     17152     17137     17139     17151     17153
     17137     17139     17151     17154     17138     17137     17139     17140
     17138     17137     17139     17141     17138     17137     17139     17151
     17139     17151     17154     17155     17139     17151     17154     17156
     17139     17151     17154     17157     17140     17139     17151     17152
     17140     17139     17151     17153     17140     17139     17151     17154
     17141     17139     17151     17152     17141     17139     17151     17153
     17141     17139     17151     17154     17142     17145     17146     17147
     17142     17145     17146     17148     17143     17142     17145     17146
     17144     17142     17145     17146     17145     17146     17148     17149
     17145     17146     17148     17150     17145     17146     17148     17198
     17146     17148     17198     17199     17146     17148     17198     17200
     17146     17148     17198     17201     17147     17146     17148     17149
     17147     17146     17148     17150     17147     17146     17148     17198
     17148     17198     17201     17202     17148     17198     17201     17203
     17148     17198     17201     17204     17149     17148     17198     17199
     17149     17148     17198     17200     17149     17148     17198     17201
     17150     17148     17198     17199     17150     17148     17198     17200
     17150     17148     17198     17201     17151     17154     17157     17158
     17151     17154     17157     17159     17151     17154     17157     17160
     17152     17151     17154     17155     17152     17151     17154     17156
     17152     17151     17154     17157     17153     17151     17154     17155
     17153     17151     17154     17156     17153     17151     17154     17157
     17154     17157     17160     17161     17154     17157     17160     17162
     17154     17157     17160     17163     17155     17154     17157     17158
     17155     17154     17157     17159     17155     17154     17157     17160
     17156     17154     17157     17158     17156     17154     17157     17159
     17156     17154     17157     17160     17157     17160     17163     17164
     17157     17160     17163     17165     17157     17160     17163     17166
     17158     17157     17160     17161     17158     17157     17160     17162
     17158     17157     17160     17163     17159     17157     17160     17161
     17159     17157     17160     17162     17159     17157     17160     17163
     17160     17163     17166     17167     17160     17163     17166     17168
     17160     17163     17166     17169     17161     17160     17163     17164
     17161     17160     17163     17165     17161     17160     17163     17166
     17162     17160     17163     17164     17162     17160     17163     17165
     17162     17160     17163     17166     17163     17166     17169     17170
     17163     17166     17169     17171     17164     17163     17166     17167
     17164     17163     17166     17168     17164     17163     17166     17169
     17165     17163     17166     17167     17165     17163     17166     17168
     17165     17163     17166     17169     17166     17169     17171     17172
     17166     17169     17171     17173     17167     17166     17169     17170
     17167     17166     17169     17171     17168     17166     17169     17170
     17168     17166     17169     17171     17169     17171     17173     17174
     17169     17171     17173     17175     17169     17171     17173     17176
     17170     17169     17171     17172     17170     17169     17171     17173
     17171     17173     17176     17177     17171     17173     17176     17178
     17171     17173     17176     17179     17172     17171     17173     17174
     17172     17171     17173     17175     17172     17171     17173     17176
     17173     17176     17179     17180     17173     17176     17179     17181
     17173     17176     17179     17182     17174     17173     17176     17177
     17174     17173     17176     17178     17174     17173     17176     17179
     17175     17173     17176     17177     17175     17173     17176     17178
     17175     17173     17176     17179     17176     17179     17182     17183
     17176     17179     17182     17184     17176     17179     17182     17185
     17177     17176     17179     17180     17177     17176     17179     17181
     17177     17176     17179     17182     17178     17176     17179     17180
     17178     17176     17179     17181     17178     17176     17179     17182
     17179     17182     17185     17186     17179     17182     17185     17187
     17179     17182     17185     17188     17180     17179     17182     17183
     17180     17179     17182     17184     17180     17179     17182     17185
     17181     17179     17182     17183     17181     17179     17182     17184
     17181     17179     17182     17185     17182     17185     17188     17189
     17182     17185     17188     17190     17182     17185     17188     17191
     17183     17182     17185     17186     17183     17182     17185     17187
     17183     17182     17185     17188     17184     17182     17185     17186
     17184     17182     17185     17187     17184     17182     17185     17188
     17185     17188     17191     17192     17185     17188     17191     17193
     17185     17188     17191     17194     17186     17185     17188     17189
     17186     17185     17188     17190     17186     17185     17188     17191
     17187     17185     17188     17189     17187     17185     17188     17190
     17187     17185     17188     17191     17188     17191     17194     17195
     17188     17191     17194     17196     17188     17191     17194     17197
     17189     17188     17191     17192     17189     17188     17191     17193
     17189     17188     17191     17194     17190     17188     17191     17192
     17190     17188     17191     17193     17190     17188     17191     17194
     17192     17191     17194     17195     17192     17191     17194     17196
     17192     17191     17194     17197     17193     17191     17194     17195
     17193     17191     17194     17196     17193     17191     17194     17197
     17198     17201     17204     17205     17198     17201     17204     17206
     17198     17201     17204     17207     17199     17198     17201     17202
     17199     17198     17201     17203     17199     17198     17201     17204
     17200     17198     17201     17202     17200     17198     17201     17203
     17200     17198     17201     17204     17201     17204     17207     17208
     17201     17204     17207     17209     17201     17204     17207     17210
     17202     17201     17204     17205     17202     17201     17204     17206
     17202     17201     17204     17207     17203     17201     17204     17205
     17203     17201     17204     17206     17203     17201     17204     17207
     17204     17207     17210     17211     17204     17207     17210     17212
     17204     17207     17210     17213     17205     17204     17207     17208
     17205     17204     17207     17209     17205     17204     17207     17210
     17206     17204     17207     17208     17206     17204     17207     17209
     17206     17204     17207     17210     17207     17210     17213     17214
     17207     17210     17213     17215     17207     17210     17213     17216
     17208     17207     17210     17211     17208     17207     17210     17212
     17208     17207     17210     17213     17209     17207     17210     17211
     17209     17207     17210     17212     17209     17207     17210     17213
     17210     17213     17216     17217     17210     17213     17216     17218
     17210     17213     17216     17219     17211     17210     17213     17214
     17211     17210     17213     17215     17211     17210     17213     17216
     17212     17210     17213     17214     17212     17210     17213     17215
     17212     17210     17213     17216     17213     17216     17219     17220
     17213     17216     17219     17221     17213     17216     17219     17222
     17214     17213     17216     17217     17214     17213     17216     17218
     17214     17213     17216     17219     17215     17213     17216     17217
     17215     17213     17216     17218     17215     17213     17216     17219
     17216     17219     17222     17223     17216     17219     17222     17224
     17216     17219     17222     17225     17217     17216     17219     17220
     17217     17216     17219     17221     17217     17216     17219     17222
     17218     17216     17219     17220     17218     17216     17219     17221
     17218     17216     17219     17222     17219     17222     17225     17226
     17219     17222     17225     17227     17219     17222     17225     17228
     17220     17219     17222     17223     17220     17219     17222     17224
     17220     17219     17222     17225     17221     17219     17222     17223
     17221     17219     17222     17224     17221     17219     17222     17225
     17222     17225     17228     17229     17222     17225     17228     17230
     17222     17225     17228     17231     17223     17222     17225     17226
     17223     17222     17225     17227     17223     17222     17225     17228
     17224     17222     17225     17226     17224     17222     17225     17227
     17224     17222     17225     17228     17225     17228     17231     17232
     17225     17228     17231     17233     17225     17228     17231     17234
     17226     17225     17228     17229     17226     17225     17228     17230
     17226     17225     17228     17231     17227     17225     17228     17229
     17227     17225     17228     17230     17227     17225     17228     17231
     17228     17231     17234     17235     17228     17231     17234     17236
     17228     17231     17234     17237     17229     17228     17231     17232
     17229     17228     17231     17233     17229     17228     17231     17234
     17230     17228     17231     17232     17230     17228     17231     17233
     17230     17228     17231     17234     17231     17234     17237     17238
     17231     17234     17237     17239     17231     17234     17237     17240
     17232     17231     17234     17235     17232     17231     17234     17236
     17232     17231     17234     17237     17233     17231     17234     17235
     17233     17231     17234     17236     17233     17231     17234     17237
     17235     17234     17237     17238     17235     17234     17237     17239
     17235     17234     17237     17240     17236     17234     17237     17238
     17236     17234     17237     17239     17236     17234     17237     17240
     17241     17242     17257     17258     17241     17242     17257     17259
     17241     17242     17257     17263     17242     17241     17245     17246
     17242     17241     17245     17247     17242     17241     17245     17248
     17242     17241     17249     17250     17242     17241     17249     17251
     17242     17241     17249     17252     17242     17241     17253     17254
     17242     17241     17253     17255     17242     17241     17253     17256
     17242     17257     17263     17260     17243     17242     17241     17245
     17243     17242     17241     17249     17243     17242     17241     17253
     17243     17242     17257     17258     17243     17242     17257     17259
     17243     17242     17257     17263     17244     17242     17241     17245
     17244     17242     17241     17249     17244     17242     17241     17253
     17244     17242     17257     17258     17244     17242     17257     17259
     17244     17242     17257     17263     17245     17241     17242     17257
     17245     17241     17249     17250     17245     17241     17249     17251
     17245     17241     17249     17252     17245     17241     17253     17254
     17245     17241     17253     17255     17245     17241     17253     17256
     17246     17245     17241     17249     17246     17245     17241     17253
     17247     17245     17241     17249     17247     17245     17241     17253
     17248     17245     17241     17249     17248     17245     17241     17253
     17249     17241     17242     17257     17249     17241     17253     17254
     17249     17241     17253     17255     17249     17241     17253     17256
     17250     17249     17241     17253     17251     17249     17241     17253
     17252     17249     17241     17253     17253     17241     17242     17257
     17257     17263     17260     17261     17257     17263     17260     17262
     17257     17263     17260     17264     17258     17257     17263     17260
     17259     17257     17263     17260     17260     17264     17265     17266
     17260     17264     17265     17267     17260     17264     17265     17268
     17261     17260     17264     17265     17262     17260     17264     17265
     17263     17260     17264     17265     17264     17265     17268     17269
     17264     17265     17268     17270     17264     17265     17268     17276
     17265     17268     17270     17271     17265     17268     17276     17277
     17265     17268     17276     17278     17265     17268     17276     17279
     17266     17265     17268     17269     17266     17265     17268     17270
     17266     17265     17268     17276     17267     17265     17268     17269
     17267     17265     17268     17270     17267     17265     17268     17276
     17268     17270     17271     17272     17268     17270     17271     17273
     17268     17276     17279     17280     17269     17268     17270     17271
     17269     17268     17276     17277     17269     17268     17276     17278
     17269     17268     17276     17279     17270     17268     17276     17277
     17270     17268     17276     17278     17270     17268     17276     17279
     17270     17271     17273     17274     17270     17271     17273     17275
     17270     17271     17273     17285     17271     17270     17268     17276
     17271     17273     17285     17286     17271     17273     17285     17287
     17271     17273     17285     17288     17272     17271     17273     17274
     17272     17271     17273     17275     17272     17271     17273     17285
     17273     17285     17288     17289     17273     17285     17288     17290
     17273     17285     17288     17291     17274     17273     17285     17286
     17274     17273     17285     17287     17274     17273     17285     17288
     17275     17273     17285     17286     17275     17273     17285     17287
     17275     17273     17285     17288     17276     17279     17280     17281
     17276     17279     17280     17282     17277     17276     17279     17280
     17278     17276     17279     17280     17279     17280     17282     17283
     17279     17280     17282     17284     17279     17280     17282     17332
     17280     17282     17332     17333     17280     17282     17332     17334
     17280     17282     17332     17335     17281     17280     17282     17283
     17281     17280     17282     17284     17281     17280     17282     17332
     17282     17332     17335     17336     17282     17332     17335     17337
     17282     17332     17335     17338     17283     17282     17332     17333
     17283     17282     17332     17334     17283     17282     17332     17335
     17284     17282     17332     17333     17284     17282     17332     17334
     17284     17282     17332     17335     17285     17288     17291     17292
     17285     17288     17291     17293     17285     17288     17291     17294
     17286     17285     17288     17289     17286     17285     17288     17290
     17286     17285     17288     17291     17287     17285     17288     17289
     17287     17285     17288     17290     17287     17285     17288     17291
     17288     17291     17294     17295     17288     17291     17294     17296
     17288     17291     17294     17297     17289     17288     17291     17292
     17289     17288     17291     17293     17289     17288     17291     17294
     17290     17288     17291     17292     17290     17288     17291     17293
     17290     17288     17291     17294     17291     17294     17297     17298
     17291     17294     17297     17299     17291     17294     17297     17300
     17292     17291     17294     17295     17292     17291     17294     17296
     17292     17291     17294     17297     17293     17291     17294     17295
     17293     17291     17294     17296     17293     17291     17294     17297
     17294     17297     17300     17301     17294     17297     17300     17302
     17294     17297     17300     17303     17295     17294     17297     17298
     17295     17294     17297     17299     17295     17294     17297     17300
     17296     17294     17297     17298     17296     17294     17297     17299
     17296     17294     17297     17300     17297     17300     17303     17304
     17297     17300     17303     17305     17298     17297     17300     17301
     17298     17297     17300     17302     17298     17297     17300     17303
     17299     17297     17300     17301     17299     17297     17300     17302
     17299     17297     17300     17303     17300     17303     17305     17306
     17300     17303     17305     17307     17301     17300     17303     17304
     17301     17300     17303     17305     17302     17300     17303     17304
     17302     17300     17303     17305     17303     17305     17307     17308
     17303     17305     17307     17309     17303     17305     17307     17310
     17304     17303     17305     17306     17304     17303     17305     17307
     17305     17307     17310     17311     17305     17307     17310     17312
     17305     17307     17310     17313     17306     17305     17307     17308
     17306     17305     17307     17309     17306     17305     17307     17310
     17307     17310     17313     17314     17307     17310     17313     17315
     17307     17310     17313     17316     17308     17307     17310     17311
     17308     17307     17310     17312     17308     17307     17310     17313
     17309     17307     17310     17311     17309     17307     17310     17312
     17309     17307     17310     17313     17310     17313     17316     17317
     17310     17313     17316     17318     17310     17313     17316     17319
     17311     17310     17313     17314     17311     17310     17313     17315
     17311     17310     17313     17316     17312     17310     17313     17314
     17312     17310     17313     17315     17312     17310     17313     17316
     17313     17316     17319     17320     17313     17316     17319     17321
     17313     17316     17319     17322     17314     17313     17316     17317
     17314     17313     17316     17318     17314     17313     17316     17319
     17315     17313     17316     17317     17315     17313     17316     17318
     17315     17313     17316     17319     17316     17319     17322     17323
     17316     17319     17322     17324     17316     17319     17322     17325
     17317     17316     17319     17320     17317     17316     17319     17321
     17317     17316     17319     17322     17318     17316     17319     17320
     17318     17316     17319     17321     17318     17316     17319     17322
     17319     17322     17325     17326     17319     17322     17325     17327
     17319     17322     17325     17328     17320     17319     17322     17323
     17320     17319     17322     17324     17320     17319     17322     17325
     17321     17319     17322     17323     17321     17319     17322     17324
     17321     17319     17322     17325     17322     17325     17328     17329
     17322     17325     17328     17330     17322     17325     17328     17331
     17323     17322     17325     17326     17323     17322     17325     17327
     17323     17322     17325     17328     17324     17322     17325     17326
     17324     17322     17325     17327     17324     17322     17325     17328
     17326     17325     17328     17329     17326     17325     17328     17330
     17326     17325     17328     17331     17327     17325     17328     17329
     17327     17325     17328     17330     17327     17325     17328     17331
     17332     17335     17338     17339     17332     17335     17338     17340
     17332     17335     17338     17341     17333     17332     17335     17336
     17333     17332     17335     17337     17333     17332     17335     17338
     17334     17332     17335     17336     17334     17332     17335     17337
     17334     17332     17335     17338     17335     17338     17341     17342
     17335     17338     17341     17343     17335     17338     17341     17344
     17336     17335     17338     17339     17336     17335     17338     17340
     17336     17335     17338     17341     17337     17335     17338     17339
     17337     17335     17338     17340     17337     17335     17338     17341
     17338     17341     17344     17345     17338     17341     17344     17346
     17338     17341     17344     17347     17339     17338     17341     17342
     17339     17338     17341     17343     17339     17338     17341     17344
     17340     17338     17341     17342     17340     17338     17341     17343
     17340     17338     17341     17344     17341     17344     17347     17348
     17341     17344     17347     17349     17341     17344     17347     17350
     17342     17341     17344     17345     17342     17341     17344     17346
     17342     17341     17344     17347     17343     17341     17344     17345
     17343     17341     17344     17346     17343     17341     17344     17347
     17344     17347     17350     17351     17344     17347     17350     17352
     17344     17347     17350     17353     17345     17344     17347     17348
     17345     17344     17347     17349     17345     17344     17347     17350
     17346     17344     17347     17348     17346     17344     17347     17349
     17346     17344     17347     17350     17347     17350     17353     17354
     17347     17350     17353     17355     17347     17350     17353     17356
     17348     17347     17350     17351     17348     17347     17350     17352
     17348     17347     17350     17353     17349     17347     17350     17351
     17349     17347     17350     17352     17349     17347     17350     17353
     17350     17353     17356     17357     17350     17353     17356     17358
     17350     17353     17356     17359     17351     17350     17353     17354
     17351     17350     17353     17355     17351     17350     17353     17356
     17352     17350     17353     17354     17352     17350     17353     17355
     17352     17350     17353     17356     17353     17356     17359     17360
     17353     17356     17359     17361     17353     17356     17359     17362
     17354     17353     17356     17357     17354     17353     17356     17358
     17354     17353     17356     17359     17355     17353     17356     17357
     17355     17353     17356     17358     17355     17353     17356     17359
     17356     17359     17362     17363     17356     17359     17362     17364
     17356     17359     17362     17365     17357     17356     17359     17360
     17357     17356     17359     17361     17357     17356     17359     17362
     17358     17356     17359     17360     17358     17356     17359     17361
     17358     17356     17359     17362     17359     17362     17365     17366
     17359     17362     17365     17367     17359     17362     17365     17368
     17360     17359     17362     17363     17360     17359     17362     17364
     17360     17359     17362     17365     17361     17359     17362     17363
     17361     17359     17362     17364     17361     17359     17362     17365
     17362     17365     17368     17369     17362     17365     17368     17370
     17362     17365     17368     17371     17363     17362     17365     17366
     17363     17362     17365     17367     17363     17362     17365     17368
     17364     17362     17365     17366     17364     17362     17365     17367
     17364     17362     17365     17368     17365     17368     17371     17372
     17365     17368     17371     17373     17365     17368     17371     17374
     17366     17365     17368     17369     17366     17365     17368     17370
     17366     17365     17368     17371     17367     17365     17368     17369
     17367     17365     17368     17370     17367     17365     17368     17371
     17369     17368     17371     17372     17369     17368     17371     17373
     17369     17368     17371     17374     17370     17368     17371     17372
     17370     17368     17371     17373     17370     17368     17371     17374

       295 !NIMPHI: impropers
        23         5        25        24        48        30        50        49
        68        69        72        66        69        70        71        68
        72        73        74        68        75        55        77        76
        92        84        94        93       117        99       119       118
       134       126       136       135       167       166       169       168
       176       175       178       177       301       300       303       302
       310       309       312       311       435       434       437       436
       444       443       446       445       569       568       571       570
       578       577       580       579       703       702       705       704
       712       711       714       713       830       829       832       831
       839       838       841       840       813       811       815       814
       964       963       966       965       973       972       975       974
      1091      1090      1093      1092      1100      1099      1102      1101
      1074      1072      1076      1075      1225      1224      1227      1226
      1234      1233      1236      1235      1359      1358      1361      1360
      1368      1367      1370      1369      1493      1492      1495      1494
      1502      1501      1504      1503      1627      1626      1629      1628
      1636      1635      1638      1637      1761      1760      1763      1762
      1770      1769      1772      1771      1895      1894      1897      1896
      1904      1903      1906      1905      2029      2028      2031      2030
      2038      2037      2040      2039      2156      2155      2158      2157
      2165      2164      2167      2166      2139      2137      2141      2140
      2283      2282      2285      2284      2292      2291      2294      2293
      2266      2264      2268      2267      2417      2416      2419      2418
      2426      2425      2428      2427      2551      2550      2553      2552
      2560      2559      2562      2561      2678      2677      2680      2679
      2687      2686      2689      2688      2661      2659      2663      2662
      2812      2811      2814      2813      2821      2820      2823      2822
      2946      2945      2948      2947      2955      2954      2957      2956
      3080      3079      3082      3081      3089      3088      3091      3090
      3207      3206      3209      3208      3216      3215      3218      3217
      3190      3188      3192      3191      3341      3340      3343      3342
      3350      3349      3352      3351      3475      3474      3477      3476
      3484      3483      3486      3485      3609      3608      3611      3610
      3618      3617      3620      3619      3743      3742      3745      3744
      3752      3751      3754      3753      3877      3876      3879      3878
      3886      3885      3888      3887      4011      4010      4013      4012
      4020      4019      4022      4021      4138      4137      4140      4139
      4147      4146      4149      4148      4121      4119      4123      4122
      4272      4271      4274      4273      4281      4280      4283      4282
      4406      4405      4408      4407      4415      4414      4417      4416
      4540      4539      4542      4541      4549      4548      4551      4550
      4667      4666      4669      4668      4676      4675      4678      4677
      4650      4648      4652      4651      4801      4800      4803      4802
      4810      4809      4812      4811      4935      4934      4937      4936
      4944      4943      4946      4945      5069      5068      5071      5070
      5078      5077      5080      5079      5203      5202      5205      5204
      5212      5211      5214      5213      5337      5336      5339      5338
      5346      5345      5348      5347      5471      5470      5473      5472
      5480      5479      5482      5481      5605      5604      5607      5606
      5614      5613      5616      5615      5732      5731      5734      5733
      5741      5740      5743      5742      5715      5713      5717      5716
      5866      5865      5868      5867      5875      5874      5877      5876
      6000      5999      6002      6001      6009      6008      6011      6010
      6127      6126      6129      6128      6136      6135      6138      6137
      6110      6108      6112      6111      6261      6260      6263      6262
      6270      6269      6272      6271      6395      6394      6397      6396
      6404      6403      6406      6405      6529      6528      6531      6530
      6538      6537      6540      6539      6656      6655      6658      6657
      6665      6664      6667      6666      6639      6637      6641      6640
      6790      6789      6792      6791      6799      6798      6801      6800
      6924      6923      6926      6925      6933      6932      6935      6934
      7058      7057      7060      7059      7067      7066      7069      7068
      7192      7191      7194      7193      7201      7200      7203      7202
      7326      7325      7328      7327      7335      7334      7337      7336
      7460      7459      7462      7461      7469      7468      7471      7470
      7594      7593      7596      7595      7603      7602      7605      7604
      7728      7727      7730      7729      7737      7736      7739      7738
      7862      7861      7864      7863      7871      7870      7873      7872
      7996      7995      7998      7997      8005      8004      8007      8006
      8130      8129      8132      8131      8139      8138      8141      8140
      8264      8263      8266      8265      8273      8272      8275      8274
      8391      8390      8393      8392      8400      8399      8402      8401
      8374      8372      8376      8375      8518      8517      8520      8519
      8527      8526      8529      8528      8501      8499      8503      8502
      8652      8651      8654      8653      8661      8660      8663      8662
      8779      8778      8781      8780      8788      8787      8790      8789
      8762      8760      8764      8763      8913      8912      8915      8914
      8922      8921      8924      8923      9047      9046      9049      9048
      9056      9055      9058      9057      9181      9180      9183      9182
      9190      9189      9192      9191      9315      9314      9317      9316
      9324      9323      9326      9325      9449      9448      9451      9450
      9458      9457      9460      9459      9576      9575      9578      9577
      9585      9584      9587      9586      9559      9557      9561      9560
      9710      9709      9712      9711      9719      9718      9721      9720
      9844      9843      9846      9845      9853      9852      9855      9854
      9978      9977      9980      9979      9987      9986      9989      9988
     10112     10111     10114     10113     10121     10120     10123     10122
     10239     10238     10241     10240     10248     10247     10250     10249
     10222     10220     10224     10223     10373     10372     10375     10374
     10382     10381     10384     10383     10507     10506     10509     10508
     10516     10515     10518     10517     10641     10640     10643     10642
     10650     10649     10652     10651     10775     10774     10777     10776
     10784     10783     10786     10785     10909     10908     10911     10910
     10918     10917     10920     10919     11043     11042     11045     11044
     11052     11051     11054     11053     11177     11176     11179     11178
     11186     11185     11188     11187     11311     11310     11313     11312
     11320     11319     11322     11321     11438     11437     11440     11439
     11447     11446     11449     11448     11421     11419     11423     11422
     11572     11571     11574     11573     11581     11580     11583     11582
     11706     11705     11708     11707     11715     11714     11717     11716
     11840     11839     11842     11841     11849     11848     11851     11850
     11974     11973     11976     11975     11983     11982     11985     11984
     12108     12107     12110     12109     12117     12116     12119     12118
     12235     12234     12237     12236     12244     12243     12246     12245
     12218     12216     12220     12219     12369     12368     12371     12370
     12378     12377     12380     12379     12503     12502     12505     12504
     12512     12511     12514     12513     12637     12636     12639     12638
     12646     12645     12648     12647     12771     12770     12773     12772
     12780     12779     12782     12781     12905     12904     12907     12906
     12914     12913     12916     12915     13039     13038     13041     13040
     13048     13047     13050     13049     13173     13172     13175     13174
     13182     13181     13184     13183     13307     13306     13309     13308
     13316     13315     13318     13317     13441     13440     13443     13442
     13450     13449     13452     13451     13568     13567     13570     13569
     13577     13576     13579     13578     13551     13549     13553     13552
     13702     13701     13704     13703     13711     13710     13713     13712
     13829     13828     13831     13830     13838     13837     13840     13839
     13812     13810     13814     13813     13963     13962     13965     13964
     13972     13971     13974     13973     14090     14089     14092     14091
     14099     14098     14101     14100     14073     14071     14075     14074
     14224     14223     14226     14225     14233     14232     14235     14234
     14358     14357     14360     14359     14367     14366     14369     14368
     14492     14491     14494     14493     14501     14500     14503     14502
     14626     14625     14628     14627     14635     14634     14637     14636
     14760     14759     14762     14761     14769     14768     14771     14770
     14887     14886     14889     14888     14896     14895     14898     14897
     14870     14868     14872     14871     15021     15020     15023     15022
     15030     15029     15032     15031     15155     15154     15157     15156
     15164     15163     15166     15165     15282     15281     15284     15283
     15291     15290     15293     15292     15265     15263     15267     15266
     15416     15415     15418     15417     15425     15424     15427     15426
     15543     15542     15545     15544     15552     15551     15554     15553
     15526     15524     15528     15527     15670     15669     15672     15671
     15679     15678     15681     15680     15653     15651     15655     15654
     15804     15803     15806     15805     15813     15812     15815     15814
     15931     15930     15933     15932     15940     15939     15942     15941
     15914     15912     15916     15915     16065     16064     16067     16066
     16074     16073     16076     16075     16199     16198     16201     16200
     16208     16207     16210     16209     16333     16332     16335     16334
     16342     16341     16344     16343     16467     16466     16469     16468
     16476     16475     16478     16477     16601     16600     16603     16602
     16610     16609     16612     16611     16735     16734     16737     16736
     16744     16743     16746     16745     16869     16868     16871     16870
     16878     16877     16880     16879     17003     17002     17005     17004
     17012     17011     17014     17013     17137     17136     17139     17138
     17146     17145     17148     17147     17271     17270     17273     17272
     17280     17279     17282     17281

         0 !NDON: donors


         0 !NACC: acceptors


         0 !NNB

         0         0         0         0         0         0         0         0
         0         0         0         0         0         0         0         0
         0         0         0         0         0         0         0         0
         0         0         0         0         0         0         0         0
         0         0         0         0         0         0         0         0
         0         0         0         0         0         0         0         0
         0         0         0         0         0         0         0         0
         0         0         0         0         0         0         0         0
         0         0         0         0         0         0         0         0
         0         0         0         0         0         0         0         0
         0         0         0         0         0         0         0         0
         0         0         0         0         0         0         0         0
         0         0         0         0         0         0         0         0
         0         0         0         0         0         0         0         0
         0         0         0         0         0         0         0         0
         0         0         0         0         0         0         0         0
         0         0         0         0         0         0         0         0
         0         0         0         0         0         0         0         0
         0         0         0         0         0         0         0         0
         0         0         0         0         0         0         0         0
         0         0         0         0         0         0         0         0
         0         0         0         0         0         0         0         0
         0         0         0         0         0         0         0         0
         0         0         0         0         0         0         0         0
         0         0         0         0         0         0         0         0
         0         0         0         0         0         0         0         0
         0         0         0         0         0         0         0         0
         0         0         0         0         0         0         0         0
         0         0         0         0         0         0         0         0
         0         0         0         0         0         0         0         0
         0         0         0         0         0         0         0         0
         0         0         0         0         0         0         0         0
         0         0         0         0         0         0         0         0
         0         0         0         0         0         0         0         0
         0         0         0         0         0         0         0         0
         0         0         0         0         0         0         0         0
         0         0         0         0         0         0         0         0
         0         0         0         0         0         0         0         0
         0         0         0         0         0         0         0         0
         0         0         0         0         0         0         0         0
         0         0         0         0         0         0         0         0
         0         0         0         0         0         0         0         0
         0         0         0         0         0         0         0         0
         0         0         0         0         0         0         0         0
         0         0         0         0         0         0         0         0
         0         0         0         0         0         0         0         0
         0         0         0         0         0         0         0         0
         0         0         0         0         0         0         0         0
         0         0         0         0         0         0         0         0
         0         0         0         0         0         0         0         0
         0         0         0         0         0         0         0         0
         0         0         0         0         0         0         0         0
         0         0         0         0         0         0         0         0
         0         0         0         0         0         0         0         0
         0         0         0         0         0         0         0         0
         0         0         0         0         0         0         0         0
         0         0         0         0         0         0         0         0
         0         0         0         0         0         0         0         0
         0         0         0         0         0         0         0         0
         0         0         0         0         0         0         0         0
         0         0         0         0         0         0         0         0
         0         0         0         0         0         0         0         0
         0         0         0         0         0         0         0         0
         0         0         0         0         0         0         0         0
         0         0         0         0         0         0         0         0
         0         0         0         0         0         0         0         0
         0         0         0         0         0         0         0         0
         0         0         0         0         0         0         0         0
         0         0         0         0         0         0         0         0
         0         0         0         0         0         0         0         0
         0         0         0         0         0         0         0         0
         0         0         0         0         0         0         0         0
         0         0         0         0         0         0         0         0
         0         0         0         0         0         0         0         0
         0         0         0         0         0         0         0         0
         0         0         0         0         0         0         0         0
         0         0         0         0         0         0         0         0
         0         0         0         0         0         0         0         0
         0         0         0         0         0         0         0         0
         0         0         0         0         0         0         0         0
         0         0         0         0         0         0         0         0
         0         0         0         0         0         0         0         0
         0         0         0         0         0         0         0         0
         0         0         0         0         0         0         0         0
         0         0         0         0         0         0         0         0
         0         0         0         0         0         0         0         0
         0         0         0         0         0         0         0         0
         0         0         0         0         0         0         0         0
         0         0         0         0         0         0         0         0
         0         0         0         0         0         0         0         0
         0         0         0         0         0         0         0         0
         0         0         0         0         0         0         0         0
         0         0         0         0         0         0         0         0
         0         0         0         0         0         0         0         0
         0         0         0         0         0         0         0         0
         0         0         0         0         0         0         0         0
         0         0         0         0         0         0         0         0
         0         0         0         0         0         0         0         0
         0         0         0         0         0         0         0         0
         0         0         0         0         0         0         0         0
         0         0         0         0         0         0         0         0
         0         0         0         0         0         0         0         0
         0         0         0         0         0         0         0         0
         0         0         0         0         0         0         0         0
         0         0         0         0         0         0         0         0
         0         0         0         0         0         0         0         0
         0         0         0         0         0         0         0         0
         0         0         0         0         0         0         0         0
         0         0         0         0         0         0         0         0
         0         0         0         0         0         0         0         0
         0         0         0         0         0         0         0         0
         0         0         0         0         0         0         0         0
         0         0         0         0         0         0         0         0
         0         0         0         0         0         0         0         0
         0         0         0         0         0         0         0         0
         0         0         0         0         0         0         0         0
         0         0         0         0         0         0         0         0
         0         0         0         0         0         0         0         0
         0         0         0         0         0         0         0         0
         0         0         0         0         0         0         0         0
         0         0         0         0         0         0         0         0
         0         0         0         0         0         0         0         0
         0         0         0         0         0         0         0         0
         0         0         0         0         0         0         0         0
         0         0         0         0         0         0         0         0
         0         0         0         0         0         0         0         0
         0         0         0         0         0         0         0         0
         0         0         0         0         0         0         0         0
         0         0         0         0         0         0         0         0
         0         0         0         0         0         0         0         0
         0         0         0         0         0         0         0         0
         0         0         0         0         0         0         0         0
         0         0         0         0         0         0         0         0
         0         0         0         0         0         0         0         0
         0         0         0         0         0         0         0         0
         0         0         0         0         0         0         0         0
         0         0         0         0         0         0         0         0
         0         0         0         0         0         0         0         0
         0         0         0         0         0         0         0         0
         0         0         0         0         0         0         0         0
         0         0         0         0         0         0         0         0
         0         0         0         0         0         0         0         0
         0         0         0         0         0         0         0         0
         0         0         0         0         0         0         0         0
         0         0         0         0         0         0         0         0
         0         0         0         0         0         0         0         0
         0         0         0         0         0         0         0         0
         0         0         0         0         0         0         0         0
         0         0         0         0         0         0         0         0
         0         0         0         0         0         0         0         0
         0         0         0         0         0         0         0         0
         0         0         0         0         0         0         0         0
         0         0         0         0         0         0         0         0
         0         0         0         0         0         0         0         0
         0         0         0         0         0         0         0         0
         0         0         0         0         0         0         0         0
         0         0         0         0         0         0         0         0
         0         0         0         0         0         0         0         0
         0         0         0         0         0         0         0         0
         0         0         0         0         0         0         0         0
         0         0         0         0         0         0         0         0
         0         0         0         0         0         0         0         0
         0         0         0         0         0         0         0         0
         0         0         0         0         0         0         0         0
         0         0         0         0         0         0         0         0
         0         0         0         0         0         0         0         0
         0         0         0         0         0         0         0         0
         0         0         0         0         0         0         0         0
         0         0         0         0         0         0         0         0
         0         0         0         0         0         0         0         0
         0         0         0         0         0         0         0         0
         0         0         0         0         0         0         0         0
         0         0         0         0         0         0         0         0
         0         0         0         0         0         0         0         0
         0         0         0         0         0         0         0         0
         0         0         0         0         0         0         0         0
         0         0         0         0         0         0         0         0
         0         0         0         0         0         0         0         0
         0         0         0         0         0         0         0         0
         0         0         0         0         0         0         0         0
         0         0         0         0         0         0         0         0
         0         0         0         0         0         0         0         0
         0         0         0         0         0         0         0         0
         0         0         0         0         0         0         0         0
         0         0         0         0         0         0         0         0
         0         0         0         0         0         0         0         0
         0         0         0         0         0         0         0         0
         0         0         0         0         0         0         0         0
         0         0         0         0         0         0         0         0
         0         0         0         0         0         0         0         0
         0         0         0         0         0         0         0         0
         0         0         0         0         0         0         0         0
         0         0         0         0         0         0         0         0
         0         0         0         0         0         0         0         0
         0         0         0         0         0         0         0         0
         0         0         0         0         0         0         0         0
         0         0         0         0         0         0         0         0
         0         0         0         0         0         0         0         0
         0         0         0         0         0         0         0         0
         0         0         0         0         0         0         0         0
         0         0         0         0         0         0         0         0
         0         0         0         0         0         0         0         0
         0         0         0         0         0         0         0         0
         0         0         0         0         0         0         0         0
         0         0         0         0         0         0         0         0
         0         0         0         0         0         0         0         0
         0         0         0         0         0         0         0         0
         0         0         0         0         0         0         0         0
         0         0         0         0         0         0         0         0
         0         0         0         0         0         0         0         0
         0         0         0         0         0         0         0         0
         0         0         0         0         0         0         0         0
         0         0         0         0         0         0         0         0
         0         0         0         0         0         0         0         0
         0         0         0         0         0         0         0         0
         0         0         0         0         0         0         0         0
         0         0         0         0         0         0         0         0
         0         0         0         0         0         0         0         0
         0         0         0         0         0         0         0         0
         0         0         0         0         0         0         0         0
         0         0         0         0         0         0         0         0
         0         0         0         0         0         0         0         0
         0         0         0         0         0         0         0         0
         0         0         0         0         0         0         0         0
         0         0         0         0         0         0         0         0
         0         0         0         0         0         0         0         0
         0         0         0         0         0         0         0         0
         0         0         0         0         0         0         0         0
         0         0         0         0         0         0         0         0
         0         0         0         0         0         0         0         0
         0         0         0         0         0         0         0         0
         0         0         0         0         0         0         0         0
         0         0         0         0         0         0         0         0
         0         0         0         0         0         0         0         0
         0         0         0         0         0         0         0         0
         0         0         0         0         0         0         0         0
         0         0         0         0         0         0         0         0
         0         0         0         0         0         0         0         0
         0         0         0         0         0         0         0         0
         0         0         0         0         0         0         0         0
         0         0         0         0         0         0         0         0
         0         0         0         0         0         0         0         0
         0         0         0         0         0         0         0         0
         0         0         0         0         0         0         0         0
         0         0         0         0         0         0         0         0
         0         0         0         0         0         0         0         0
         0         0         0         0         0         0         0         0
         0         0         0         0         0         0         0         0
         0         0         0         0         0         0         0         0
         0         0         0         0         0         0         0         0
         0         0         0         0         0         0         0         0
         0         0         0         0         0         0         0         0
         0         0         0         0         0         0         0         0
         0         0         0         0         0         0         0         0
         0         0         0         0         0         0         0         0
         0         0         0         0         0         0         0         0
         0         0         0         0         0         0         0         0
         0         0         0         0         0         0         0         0
         0         0         0         0         0         0         0         0
         0         0         0         0         0         0         0         0
         0         0         0         0         0         0         0         0
         0         0         0         0         0         0         0         0
         0         0         0         0         0         0         0         0
         0         0         0         0         0         0         0         0
         0         0         0         0         0         0         0         0
         0         0         0         0         0         0         0         0
         0         0         0         0         0         0         0         0
         0         0         0         0         0         0         0         0
         0         0         0         0         0         0         0         0
         0         0         0         0         0         0         0         0
         0         0         0         0         0         0         0         0
         0         0         0         0         0         0         0         0
         0         0         0         0         0         0         0         0
         0         0         0         0         0         0         0         0
         0         0         0         0         0         0         0         0
         0         0         0         0         0         0         0         0
         0         0         0         0         0         0         0         0
         0         0         0         0         0         0         0         0
         0         0         0         0         0         0         0         0
         0         0         0         0         0         0         0         0
         0         0         0         0         0         0         0         0
         0         0         0         0         0         0         0         0
         0         0         0         0         0         0         0         0
         0         0         0         0         0         0         0         0
         0         0         0         0         0         0         0         0
         0         0         0         0         0         0         0         0
         0         0         0         0         0         0         0         0
         0         0         0         0         0         0         0         0
         0         0         0         0         0         0         0         0
         0         0         0         0         0         0         0         0
         0         0         0         0         0         0         0         0
         0         0         0         0         0         0         0         0
         0         0         0         0         0         0         0         0
         0         0         0         0         0         0         0         0
         0         0         0         0         0         0         0         0
         0         0         0         0         0         0         0         0
         0         0         0         0         0         0         0         0
         0         0         0         0         0         0         0         0
         0         0         0         0         0         0         0         0
         0         0         0         0         0         0         0         0
         0         0         0         0         0         0         0         0
         0         0         0         0         0         0         0         0
         0         0         0         0         0         0         0         0
         0         0         0         0         0         0         0         0
         0         0         0         0         0         0         0         0
         0         0         0         0         0         0         0         0
         0         0         0         0         0         0         0         0
         0         0         0         0         0         0         0         0
         0         0         0         0         0         0         0         0
         0         0         0         0         0         0         0         0
         0         0         0         0         0         0         0         0
         0         0         0         0         0         0         0         0
         0         0         0         0         0         0         0         0
         0         0         0         0         0         0         0         0
         0         0         0         0         0         0         0         0
         0         0         0         0         0         0         0         0
         0         0         0         0         0         0         0         0
         0         0         0         0         0         0         0         0
         0         0         0         0         0         0         0         0
         0         0         0         0         0         0         0         0
         0         0         0         0         0         0         0         0
         0         0         0         0         0         0         0         0
         0         0         0         0         0         0         0         0
         0         0         0         0         0         0         0         0
         0         0         0         0         0         0         0         0
         0         0         0         0         0         0         0         0
         0         0         0         0         0         0         0         0
         0         0         0         0         0         0         0         0
         0         0         0         0         0         0         0         0
         0         0         0         0         0         0         0         0
         0         0         0         0         0         0         0         0
         0         0         0         0         0         0         0         0
         0         0         0         0         0         0         0         0
         0         0         0         0         0         0         0         0
         0         0         0         0         0         0         0         0
         0         0         0         0         0         0         0         0
         0         0         0         0         0         0         0         0
         0         0         0         0         0         0         0         0
         0         0         0         0         0         0         0         0
         0         0         0         0         0         0         0         0
         0         0         0         0         0         0         0         0
         0         0         0         0         0         0         0         0
         0         0         0         0         0         0         0         0
         0         0         0         0         0         0         0         0
         0         0         0         0         0         0         0         0
         0         0         0         0         0         0         0         0
         0         0         0         0         0         0         0         0
         0         0         0         0         0         0         0         0
         0         0         0         0         0         0         0         0
         0         0         0         0         0         0         0         0
         0         0         0         0         0         0         0         0
         0         0         0         0         0         0         0         0
         0         0         0         0         0         0         0         0
         0         0         0         0         0         0         0         0
         0         0         0         0         0         0         0         0
         0         0         0         0         0         0         0         0
         0         0         0         0         0         0         0         0
         0         0         0         0         0         0         0         0
         0         0         0         0         0         0         0         0
         0         0         0         0         0         0         0         0
         0         0         0         0         0         0         0         0
         0         0         0         0         0         0         0         0
         0         0         0         0         0         0         0         0
         0         0         0         0         0         0         0         0
         0         0         0         0         0         0         0         0
         0         0         0         0         0         0         0         0
         0         0         0         0         0         0         0         0
         0         0         0         0         0         0         0         0
         0         0         0         0         0         0         0         0
         0         0         0         0         0         0         0         0
         0         0         0         0         0         0         0         0
         0         0         0         0         0         0         0         0
         0         0         0         0         0         0         0         0
         0         0         0         0         0         0         0         0
         0         0         0         0         0         0         0         0
         0         0         0         0         0         0         0         0
         0         0         0         0         0         0         0         0
         0         0         0         0         0         0         0         0
         0         0         0         0         0         0         0         0
         0         0         0         0         0         0         0         0
         0         0         0         0         0         0         0         0
         0         0         0         0         0         0         0         0
         0         0         0         0         0         0         0         0
         0         0         0         0         0         0         0         0
         0         0         0         0         0         0         0         0
         0         0         0         0         0         0         0         0
         0         0         0         0         0         0         0         0
         0         0         0         0         0         0         0         0
         0         0         0         0         0         0         0         0
         0         0         0         0         0         0         0         0
         0         0         0         0         0         0         0         0
         0         0         0         0         0         0         0         0
         0         0         0         0         0         0         0         0
         0         0         0         0         0         0         0         0
         0         0         0         0         0         0         0         0
         0         0         0         0         0         0         0         0
         0         0         0         0         0         0         0         0
         0         0         0         0         0         0         0         0
         0         0         0         0         0         0         0         0
         0         0         0         0         0         0         0         0
         0         0         0         0         0         0         0         0
         0         0         0         0         0         0         0         0
         0         0         0         0         0         0         0         0
         0         0         0         0         0         0         0         0
         0         0         0         0         0         0         0         0
         0         0         0         0         0         0         0         0
         0         0         0         0         0         0         0         0
         0         0         0         0         0         0         0         0
         0         0         0         0         0         0         0         0
         0         0         0         0         0         0         0         0
         0         0         0         0         0         0         0         0
         0         0         0         0         0         0         0         0
         0         0         0         0         0         0         0         0
         0         0         0         0         0         0         0         0
         0         0         0         0         0         0         0         0
         0         0         0         0         0         0         0         0
         0         0         0         0         0         0         0         0
         0         0         0         0         0         0         0         0
         0         0         0         0         0         0         0         0
         0         0         0         0         0         0         0         0
         0         0         0         0         0         0         0         0
         0         0         0         0         0         0         0         0
         0         0         0         0         0         0         0         0
         0         0         0         0         0         0         0         0
         0         0         0         0         0         0         0         0
         0         0         0         0         0         0         0         0
         0         0         0         0         0         0         0         0
         0         0         0         0         0         0         0         0
         0         0         0         0         0         0         0         0
         0         0         0         0         0         0         0         0
         0         0         0         0         0         0         0         0
         0         0         0         0         0         0         0         0
         0         0         0         0         0         0         0         0
         0         0         0         0         0         0         0         0
         0         0         0         0         0         0         0         0
         0         0         0         0         0         0         0         0
         0         0         0         0         0         0         0         0
         0         0         0         0         0         0         0         0
         0         0         0         0         0         0         0         0
         0         0         0         0         0         0         0         0
         0         0         0         0         0         0         0         0
         0         0         0         0         0         0         0         0
         0         0         0         0         0         0         0         0
         0         0         0         0         0         0         0         0
         0         0         0         0         0         0         0         0
         0         0         0         0         0         0         0         0
         0         0         0         0         0         0         0         0
         0         0         0         0         0         0         0         0
         0         0         0         0         0         0         0         0
         0         0         0         0         0         0         0         0
         0         0         0         0         0         0         0         0
         0         0         0         0         0         0         0         0
         0         0         0         0         0         0         0         0
         0         0         0         0         0         0         0         0
         0         0         0         0         0         0         0         0
         0         0         0         0         0         0         0         0
         0         0         0         0         0         0         0         0
         0         0         0         0         0         0         0         0
         0         0         0         0         0         0         0         0
         0         0         0         0         0         0         0         0
         0         0         0         0         0         0         0         0
         0         0         0         0         0         0         0         0
         0         0         0         0         0         0         0         0
         0         0         0         0         0         0         0         0
         0         0         0         0         0         0         0         0
         0         0         0         0         0         0         0         0
         0         0         0         0         0         0         0         0
         0         0         0         0         0         0         0         0
         0         0         0         0         0         0         0         0
         0         0         0         0         0         0         0         0
         0         0         0         0         0         0         0         0
         0         0         0         0         0         0         0         0
         0         0         0         0         0         0         0         0
         0         0         0         0         0         0         0         0
         0         0         0         0         0         0         0         0
         0         0         0         0         0         0         0         0
         0         0         0         0         0         0         0         0
         0         0         0         0         0         0         0         0
         0         0         0         0         0         0         0         0
         0         0         0         0         0         0         0         0
         0         0         0         0         0         0         0         0
         0         0         0         0         0         0         0         0
         0         0         0         0         0         0         0         0
         0         0         0         0         0         0         0         0
         0         0         0         0         0         0         0         0
         0         0         0         0         0         0         0         0
         0         0         0         0         0         0         0         0
         0         0         0         0         0         0         0         0
         0         0         0         0         0         0         0         0
         0         0         0         0         0         0         0         0
         0         0         0         0         0         0         0         0
         0         0         0         0         0         0         0         0
         0         0         0         0         0         0         0         0
         0         0         0         0         0         0         0         0
         0         0         0         0         0         0         0         0
         0         0         0         0         0         0         0         0
         0         0         0         0         0         0         0         0
         0         0         0         0         0         0         0         0
         0         0         0         0         0         0         0         0
         0         0         0         0         0         0         0         0
         0         0         0         0         0         0         0         0
         0         0         0         0         0         0         0         0
         0         0         0         0         0         0         0         0
         0         0         0         0         0         0         0         0
         0         0         0         0         0         0         0         0
         0         0         0         0         0         0         0         0
         0         0         0         0         0         0         0         0
         0         0         0         0         0         0         0         0
         0         0         0         0         0         0         0         0
         0         0         0         0         0         0         0         0
         0         0         0         0         0         0         0         0
         0         0         0         0         0         0         0         0
         0         0         0         0         0         0         0         0
         0         0         0         0         0         0         0         0
         0         0         0         0         0         0         0         0
         0         0         0         0         0         0         0         0
         0         0         0         0         0         0         0         0
         0         0         0         0         0         0         0         0
         0         0         0         0         0         0         0         0
         0         0         0         0         0         0         0         0
         0         0         0         0         0         0         0         0
         0         0         0         0         0         0         0         0
         0         0         0         0         0         0         0         0
         0         0         0         0         0         0         0         0
         0         0         0         0         0         0         0         0
         0         0         0         0         0         0         0         0
         0         0         0         0         0         0         0         0
         0         0         0         0         0         0         0         0
         0         0         0         0         0         0         0         0
         0         0         0         0         0         0         0         0
         0         0         0         0         0         0         0         0
         0         0         0         0         0         0         0         0
         0         0         0         0         0         0         0         0
         0         0         0         0         0         0         0         0
         0         0         0         0         0         0         0         0
         0         0         0         0         0         0         0         0
         0         0         0         0         0         0         0         0
         0         0         0         0         0         0         0         0
         0         0         0         0         0         0         0         0
         0         0         0         0         0         0         0         0
         0         0         0         0         0         0         0         0
         0         0         0         0         0         0         0         0
         0         0         0         0         0         0         0         0
         0         0         0         0         0         0         0         0
         0         0         0         0         0         0         0         0
         0         0         0         0         0         0         0         0
         0         0         0         0         0         0         0         0
         0         0         0         0         0         0         0         0
         0         0         0         0         0         0         0         0
         0         0         0         0         0         0         0         0
         0         0         0         0         0         0         0         0
         0         0         0         0         0         0         0         0
         0         0         0         0         0         0         0         0
         0         0         0         0         0         0         0         0
         0         0         0         0         0         0         0         0
         0         0         0         0         0         0         0         0
         0         0         0         0         0         0         0         0
         0         0         0         0         0         0         0         0
         0         0         0         0         0         0         0         0
         0         0         0         0         0         0         0         0
         0         0         0         0         0         0         0         0
         0         0         0         0         0         0         0         0
         0         0         0         0         0         0         0         0
         0         0         0         0         0         0         0         0
         0         0         0         0         0         0         0         0
         0         0         0         0         0         0         0         0
         0         0         0         0         0         0         0         0
         0         0         0         0         0         0         0         0
         0         0         0         0         0         0         0         0
         0         0         0         0         0         0         0         0
         0         0         0         0         0         0         0         0
         0         0         0         0         0         0         0         0
         0         0         0         0         0         0         0         0
         0         0         0         0         0         0         0         0
         0         0         0         0         0         0         0         0
         0         0         0         0         0         0         0         0
         0         0         0         0         0         0         0         0
         0         0         0         0         0         0         0         0
         0         0         0         0         0         0         0         0
         0         0         0         0         0         0         0         0
         0         0         0         0         0         0         0         0
         0         0         0         0         0         0         0         0
         0         0         0         0         0         0         0         0
         0         0         0         0         0         0         0         0
         0         0         0         0         0         0         0         0
         0         0         0         0         0         0         0         0
         0         0         0         0         0         0         0         0
         0         0         0         0         0         0         0         0
         0         0         0         0         0         0         0         0
         0         0         0         0         0         0         0         0
         0         0         0         0         0         0         0         0
         0         0         0         0         0         0         0         0
         0         0         0         0         0         0         0         0
         0         0         0         0         0         0         0         0
         0         0         0         0         0         0         0         0
         0         0         0         0         0         0         0         0
         0         0         0         0         0         0         0         0
         0         0         0         0         0         0         0         0
         0         0         0         0         0         0         0         0
         0         0         0         0         0         0         0         0
         0         0         0         0         0         0         0         0
         0         0         0         0         0         0         0         0
         0         0         0         0         0         0         0         0
         0         0         0         0         0         0         0         0
         0         0         0         0         0         0         0         0
         0         0         0         0         0         0         0         0
         0         0         0         0         0         0         0         0
         0         0         0         0         0         0         0         0
         0         0         0         0         0         0         0         0
         0         0         0         0         0         0         0         0
         0         0         0         0         0         0         0         0
         0         0         0         0         0         0         0         0
         0         0         0         0         0         0         0         0
         0         0         0         0         0         0         0         0
         0         0         0         0         0         0         0         0
         0         0         0         0         0         0         0         0
         0         0         0         0         0         0         0         0
         0         0         0         0         0         0         0         0
         0         0         0         0         0         0         0         0
         0         0         0         0         0         0         0         0
         0         0         0         0         0         0         0         0
         0         0         0         0         0         0         0         0
         0         0         0         0         0         0         0         0
         0         0         0         0         0         0         0         0
         0         0         0         0         0         0         0         0
         0         0         0         0         0         0         0         0
         0         0         0         0         0         0         0         0
         0         0         0         0         0         0         0         0
         0         0         0         0         0         0         0         0
         0         0         0         0         0         0         0         0
         0         0         0         0         0         0         0         0
         0         0         0         0         0         0         0         0
         0         0         0         0         0         0         0         0
         0         0         0         0         0         0         0         0
         0         0         0         0         0         0         0         0
         0         0         0         0         0         0         0         0
         0         0         0         0         0         0         0         0
         0         0         0         0         0         0         0         0
         0         0         0         0         0         0         0         0
         0         0         0         0         0         0         0         0
         0         0         0         0         0         0         0         0
         0         0         0         0         0         0         0         0
         0         0         0         0         0         0         0         0
         0         0         0         0         0         0         0         0
         0         0         0         0         0         0         0         0
         0         0         0         0         0         0         0         0
         0         0         0         0         0         0         0         0
         0         0         0         0         0         0         0         0
         0         0         0         0         0         0         0         0
         0         0         0         0         0         0         0         0
         0         0         0         0         0         0         0         0
         0         0         0         0         0         0         0         0
         0         0         0         0         0         0         0         0
         0         0         0         0         0         0         0         0
         0         0         0         0         0         0         0         0
         0         0         0         0         0         0         0         0
         0         0         0         0         0         0         0         0
         0         0         0         0         0         0         0         0
         0         0         0         0         0         0         0         0
         0         0         0         0         0         0         0         0
         0         0         0         0         0         0         0         0
         0         0         0         0         0         0         0         0
         0         0         0         0         0         0         0         0
         0         0         0         0         0         0         0         0
         0         0         0         0         0         0         0         0
         0         0         0         0         0         0         0         0
         0         0         0         0         0         0         0         0
         0         0         0         0         0         0         0         0
         0         0         0         0         0         0         0         0
         0         0         0         0         0         0         0         0
         0         0         0         0         0         0         0         0
         0         0         0         0         0         0         0         0
         0         0         0         0         0         0         0         0
         0         0         0         0         0         0         0         0
         0         0         0         0         0         0         0         0
         0         0         0         0         0         0         0         0
         0         0         0         0         0         0         0         0
         0         0         0         0         0         0         0         0
         0         0         0         0         0         0         0         0
         0         0         0         0         0         0         0         0
         0         0         0         0         0         0         0         0
         0         0         0         0         0         0         0         0
         0         0         0         0         0         0         0         0
         0         0         0         0         0         0         0         0
         0         0         0         0         0         0         0         0
         0         0         0         0         0         0         0         0
         0         0         0         0         0         0         0         0
         0         0         0         0         0         0         0         0
         0         0         0         0         0         0         0         0
         0         0         0         0         0         0         0         0
         0         0         0         0         0         0         0         0
         0         0         0         0         0         0         0         0
         0         0         0         0         0         0         0         0
         0         0         0         0         0         0         0         0
         0         0         0         0         0         0         0         0
         0         0         0         0         0         0         0         0
         0         0         0         0         0         0         0         0
         0         0         0         0         0         0         0         0
         0         0         0         0         0         0         0         0
         0         0         0         0         0         0         0         0
         0         0         0         0         0         0         0         0
         0         0         0         0         0         0         0         0
         0         0         0         0         0         0         0         0
         0         0         0         0         0         0         0         0
         0         0         0         0         0         0         0         0
         0         0         0         0         0         0         0         0
         0         0         0         0         0         0         0         0
         0         0         0         0         0         0         0         0
         0         0         0         0         0         0         0         0
         0         0         0         0         0         0         0         0
         0         0         0         0         0         0         0         0
         0         0         0         0         0         0         0         0
         0         0         0         0         0         0         0         0
         0         0         0         0         0         0         0         0
         0         0         0         0         0         0         0         0
         0         0         0         0         0         0         0         0
         0         0         0         0         0         0         0         0
         0         0         0         0         0         0         0         0
         0         0         0         0         0         0         0         0
         0         0         0         0         0         0         0         0
         0         0         0         0         0         0         0         0
         0         0         0         0         0         0         0         0
         0         0         0         0         0         0         0         0
         0         0         0         0         0         0         0         0
         0         0         0         0         0         0         0         0
         0         0         0         0         0         0         0         0
         0         0         0         0         0         0         0         0
         0         0         0         0         0         0         0         0
         0         0         0         0         0         0         0         0
         0         0         0         0         0         0         0         0
         0         0         0         0         0         0         0         0
         0         0         0         0         0         0         0         0
         0         0         0         0         0         0         0         0
         0         0         0         0         0         0         0         0
         0         0         0         0         0         0         0         0
         0         0         0         0         0         0         0         0
         0         0         0         0         0         0         0         0
         0         0         0         0         0         0         0         0
         0         0         0         0         0         0         0         0
         0         0         0         0         0         0         0         0
         0         0         0         0         0         0         0         0
         0         0         0         0         0         0         0         0
         0         0         0         0         0         0         0         0
         0         0         0         0         0         0         0         0
         0         0         0         0         0         0         0         0
         0         0         0         0         0         0         0         0
         0         0         0         0         0         0         0         0
         0         0         0         0         0         0         0         0
         0         0         0         0         0         0         0         0
         0         0         0         0         0         0         0         0
         0         0         0         0         0         0         0         0
         0         0         0         0         0         0         0         0
         0         0         0         0         0         0         0         0
         0         0         0         0         0         0         0         0
         0         0         0         0         0         0         0         0
         0         0         0         0         0         0         0         0
         0         0         0         0         0         0         0         0
         0         0         0         0         0         0         0         0
         0         0         0         0         0         0         0         0
         0         0         0         0         0         0         0         0
         0         0         0         0         0         0         0         0
         0         0         0         0         0         0         0         0
         0         0         0         0         0         0         0         0
         0         0         0         0         0         0         0         0
         0         0         0         0         0         0         0         0
         0         0         0         0         0         0         0         0
         0         0         0         0         0         0         0         0
         0         0         0         0         0         0         0         0
         0         0         0         0         0         0         0         0
         0         0         0         0         0         0         0         0
         0         0         0         0         0         0         0         0
         0         0         0         0         0         0         0         0
         0         0         0         0         0         0         0         0
         0         0         0         0         0         0         0         0
         0         0         0         0         0         0         0         0
         0         0         0         0         0         0         0         0
         0         0         0         0         0         0         0         0
         0         0         0         0         0         0         0         0
         0         0         0         0         0         0         0         0
         0         0         0         0         0         0         0         0
         0         0         0         0         0         0         0         0
         0         0         0         0         0         0         0         0
         0         0         0         0         0         0         0         0
         0         0         0         0         0         0         0         0
         0         0         0         0         0         0         0         0
         0         0         0         0         0         0         0         0
         0         0         0         0         0         0         0         0
         0         0         0         0         0         0         0         0
         0         0         0         0         0         0         0         0
         0         0         0         0         0         0         0         0
         0         0         0         0         0         0         0         0
         0         0         0         0         0         0         0         0
         0         0         0         0         0         0         0         0
         0         0         0         0         0         0         0         0
         0         0         0         0         0         0         0         0
         0         0         0         0         0         0         0         0
         0         0         0         0         0         0         0         0
         0         0         0         0         0         0         0         0
         0         0         0         0         0         0         0         0
         0         0         0         0         0         0         0         0
         0         0         0         0         0         0         0         0
         0         0         0         0         0         0         0         0
         0         0         0         0         0         0         0         0
         0         0         0         0         0         0         0         0
         0         0         0         0         0         0         0         0
         0         0         0         0         0         0         0         0
         0         0         0         0         0         0         0         0
         0         0         0         0         0         0         0         0
         0         0         0         0         0         0         0         0
         0         0         0         0         0         0         0         0
         0         0         0         0         0         0         0         0
         0         0         0         0         0         0         0         0
         0         0         0         0         0         0         0         0
         0         0         0         0         0         0         0         0
         0         0         0         0         0         0         0         0
         0         0         0         0         0         0         0         0
         0         0         0         0         0         0         0         0
         0         0         0         0         0         0         0         0
         0         0         0         0         0         0         0         0
         0         0         0         0         0         0         0         0
         0         0         0         0         0         0         0         0
         0         0         0         0         0         0         0         0
         0         0         0         0         0         0         0         0
         0         0         0         0         0         0         0         0
         0         0         0         0         0         0         0         0
         0         0         0         0         0         0         0         0
         0         0         0         0         0         0         0         0
         0         0         0         0         0         0         0         0
         0         0         0         0         0         0         0         0
         0         0         0         0         0         0         0         0
         0         0         0         0         0         0         0         0
         0         0         0         0         0         0         0         0
         0         0         0         0         0         0         0         0
         0         0         0         0         0         0         0         0
         0         0         0         0         0         0         0         0
         0         0         0         0         0         0         0         0
         0         0         0         0         0         0         0         0
         0         0         0         0         0         0         0         0
         0         0         0         0         0         0         0         0
         0         0         0         0         0         0         0         0
         0         0         0         0         0         0         0         0
         0         0         0         0         0         0         0         0
         0         0         0         0         0         0         0         0
         0         0         0         0         0         0         0         0
         0         0         0         0         0         0         0         0
         0         0         0         0         0         0         0         0
         0         0         0         0         0         0         0         0
         0         0         0         0         0         0         0         0
         0         0         0         0         0         0         0         0
         0         0         0         0         0         0         0         0
         0         0         0         0         0         0         0         0
         0         0         0         0         0         0         0         0
         0         0         0         0         0         0         0         0
         0         0         0         0         0         0         0         0
         0         0         0         0         0         0         0         0
         0         0         0         0         0         0         0         0
         0         0         0         0         0         0         0         0
         0         0         0         0         0         0         0         0
         0         0         0         0         0         0         0         0
         0         0         0         0         0         0         0         0
         0         0         0         0         0         0         0         0
         0         0         0         0         0         0         0         0
         0         0         0         0         0         0         0         0
         0         0         0         0         0         0         0         0
         0         0         0         0         0         0         0         0
         0         0         0         0         0         0         0         0
         0         0         0         0         0         0         0         0
         0         0         0         0         0         0         0         0
         0         0         0         0         0         0         0         0
         0         0         0         0         0         0         0         0
         0         0         0         0         0         0         0         0
         0         0         0         0         0         0         0         0
         0         0         0         0         0         0         0         0
         0         0         0         0         0         0         0         0
         0         0         0         0         0         0         0         0
         0         0         0         0         0         0         0         0
         0         0         0         0         0         0         0         0
         0         0         0         0         0         0         0         0
         0         0         0         0         0         0         0         0
         0         0         0         0         0         0         0         0
         0         0         0         0         0         0         0         0
         0         0         0         0         0         0         0         0
         0         0         0         0         0         0         0         0
         0         0         0         0         0         0         0         0
         0         0         0         0         0         0         0         0
         0         0         0         0         0         0         0         0
         0         0         0         0         0         0         0         0
         0         0         0         0         0         0         0         0
         0         0         0         0         0         0         0         0
         0         0         0         0         0         0         0         0
         0         0         0         0         0         0         0         0
         0         0         0         0         0         0         0         0
         0         0         0         0         0         0         0         0
         0         0         0         0         0         0         0         0
         0         0         0         0         0         0         0         0
         0         0         0         0         0         0         0         0
         0         0         0         0         0         0         0         0
         0         0         0         0         0         0         0         0
         0         0         0         0         0         0         0         0
         0         0         0         0         0         0         0         0
         0         0         0         0         0         0         0         0
         0         0         0         0         0         0         0         0
         0         0         0         0         0         0         0         0
         0         0         0         0         0         0         0         0
         0         0         0         0         0         0         0         0
         0         0         0         0         0         0         0         0
         0         0         0         0         0         0         0         0
         0         0         0         0         0         0         0         0
         0         0         0         0         0         0         0         0
         0         0         0         0         0         0         0         0
         0         0         0         0         0         0         0         0
         0         0         0         0         0         0         0         0
         0         0         0         0         0         0         0         0
         0         0         0         0         0         0         0         0
         0         0         0         0         0         0         0         0
         0         0         0         0         0         0         0         0
         0         0         0         0         0         0         0         0
         0         0         0         0         0         0         0         0
         0         0         0         0         0         0         0         0
         0         0         0         0         0         0         0         0
         0         0         0         0         0         0         0         0
         0         0         0         0         0         0         0         0
         0         0         0         0         0         0         0         0
         0         0         0         0         0         0         0         0
         0         0         0         0         0         0         0         0
         0         0         0         0         0         0         0         0
         0         0         0         0         0         0         0         0
         0         0         0         0         0         0         0         0
         0         0         0         0         0         0         0         0
         0         0         0         0         0         0         0         0
         0         0         0         0         0         0         0         0
         0         0         0         0         0         0         0         0
         0         0         0         0         0         0         0         0
         0         0         0         0         0         0         0         0
         0         0         0         0         0         0         0         0
         0         0         0         0         0         0         0         0
         0         0         0         0         0         0         0         0
         0         0         0         0         0         0         0         0
         0         0         0         0         0         0         0         0
         0         0         0         0         0         0         0         0
         0         0         0         0         0         0         0         0
         0         0         0         0         0         0         0         0
         0         0         0         0         0         0         0         0
         0         0         0         0         0         0         0         0
         0         0         0         0         0         0         0         0
         0         0         0         0         0         0         0         0
         0         0         0         0         0         0         0         0
         0         0         0         0         0         0         0         0
         0         0         0         0         0         0         0         0
         0         0         0         0         0         0         0         0
         0         0         0         0         0         0         0         0
         0         0         0         0         0         0         0         0
         0         0         0         0         0         0         0         0
         0         0         0         0         0         0         0         0
         0         0         0         0         0         0         0         0
         0         0         0         0         0         0         0         0
         0         0         0         0         0         0         0         0
         0         0         0         0         0         0         0         0
         0         0         0         0         0         0         0         0
         0         0         0         0         0         0         0         0
         0         0         0         0         0         0         0         0
         0         0         0         0         0         0         0         0
         0         0         0         0         0         0         0         0
         0         0         0         0         0         0         0         0
         0         0         0         0         0         0         0         0
         0         0         0         0         0         0         0         0
         0         0         0         0         0         0         0         0
         0         0         0         0         0         0         0         0
         0         0         0         0         0         0         0         0
         0         0         0         0         0         0         0         0
         0         0         0         0         0         0         0         0
         0         0         0         0         0         0         0         0
         0         0         0         0         0         0         0         0
         0         0         0         0         0         0         0         0
         0         0         0         0         0         0         0         0
         0         0         0         0         0         0         0         0
         0         0         0         0         0         0         0         0
         0         0         0         0         0         0         0         0
         0         0         0         0         0         0         0         0
         0         0         0         0         0         0         0         0
         0         0         0         0         0         0         0         0
         0         0         0         0         0         0         0         0
         0         0         0         0         0         0         0         0
         0         0         0         0         0         0         0         0
         0         0         0         0         0         0         0         0
         0         0         0         0         0         0         0         0
         0         0         0         0         0         0         0         0
         0         0         0         0         0         0         0         0
         0         0         0         0         0         0         0         0
         0         0         0         0         0         0         0         0
         0         0         0         0         0         0         0         0
         0         0         0         0         0         0         0         0
         0         0         0         0         0         0         0         0
         0         0         0         0         0         0         0         0
         0         0         0         0         0         0         0         0
         0         0         0         0         0         0         0         0
         0         0         0         0         0         0         0         0
         0         0         0         0         0         0         0         0
         0         0         0         0         0         0         0         0
         0         0         0         0         0         0         0         0
         0         0         0         0         0         0         0         0
         0         0         0         0         0         0         0         0
         0         0         0         0         0         0         0         0
         0         0         0         0         0         0         0         0
         0         0         0         0         0         0         0         0
         0         0         0         0         0         0         0         0
         0         0         0         0         0         0         0         0
         0         0         0         0         0         0         0         0
         0         0         0         0         0         0         0         0
         0         0         0         0         0         0         0         0
         0         0         0         0         0         0         0         0
         0         0         0         0         0         0         0         0
         0         0         0         0         0         0         0         0
         0         0         0         0         0         0         0         0
         0         0         0         0         0         0         0         0
         0         0         0         0         0         0         0         0
         0         0         0         0         0         0         0         0
         0         0         0         0         0         0         0         0
         0         0         0         0         0         0         0         0
         0         0         0         0         0         0         0         0
         0         0         0         0         0         0         0         0
         0         0         0         0         0         0         0         0
         0         0         0         0         0         0         0         0
         0         0         0         0         0         0         0         0
         0         0         0         0         0         0         0         0
         0         0         0         0         0         0         0         0
         0         0         0         0         0         0         0         0
         0         0         0         0         0         0         0         0
         0         0         0         0         0         0         0         0
         0         0         0         0         0         0         0         0
         0         0         0         0         0         0         0         0
         0         0         0         0         0         0         0         0
         0         0         0         0         0         0         0         0
         0         0         0         0         0         0         0         0
         0         0         0         0         0         0         0         0
         0         0         0         0         0         0         0         0
         0         0         0         0         0         0         0         0
         0         0         0         0         0         0         0         0
         0         0         0         0         0         0         0         0
         0         0         0         0         0         0         0         0
         0         0         0         0         0         0         0         0
         0         0         0         0         0         0         0         0
         0         0         0         0         0         0         0         0
         0         0         0         0         0         0         0         0
         0         0         0         0         0         0         0         0
         0         0         0         0         0         0         0         0
         0         0         0         0         0         0         0         0
         0         0         0         0         0         0         0         0
         0         0         0         0         0         0         0         0
         0         0         0         0         0         0         0         0
         0         0         0         0         0         0         0         0
         0         0         0         0         0         0         0         0
         0         0         0         0         0         0         0         0
         0         0         0         0         0         0         0         0
         0         0         0         0         0         0         0         0
         0         0         0         0         0         0         0         0
         0         0         0         0         0         0         0         0
         0         0         0         0         0         0         0         0
         0         0         0         0         0         0         0         0
         0         0         0         0         0         0         0         0
         0         0         0         0         0         0         0         0
         0         0         0         0         0         0         0         0
         0         0         0         0         0         0         0         0
         0         0         0         0         0         0         0         0
         0         0         0         0         0         0         0         0
         0         0         0         0         0         0         0         0
         0         0         0         0         0         0         0         0
         0         0         0         0         0         0         0         0
         0         0         0         0         0         0         0         0
         0         0         0         0         0         0         0         0
         0         0         0         0         0         0         0         0
         0         0         0         0         0         0         0         0
         0         0         0         0         0         0         0         0
         0         0         0         0         0         0         0         0
         0         0         0         0         0         0         0         0
         0         0         0         0         0         0         0         0
         0         0         0         0         0         0         0         0
         0         0         0         0         0         0         0         0
         0         0         0         0         0         0         0         0
         0         0         0         0         0         0         0         0
         0         0         0         0         0         0         0         0
         0         0         0         0         0         0         0         0
         0         0         0         0         0         0         0         0
         0         0         0         0         0         0         0         0
         0         0         0         0         0         0         0         0
         0         0         0         0         0         0         0         0
         0         0         0         0         0         0         0         0
         0         0         0         0         0         0         0         0
         0         0         0         0         0         0         0         0
         0         0         0         0         0         0         0         0
         0         0         0         0         0         0         0         0
         0         0         0         0         0         0         0         0
         0         0         0         0         0         0         0         0
         0         0         0         0         0         0         0         0
         0         0         0         0         0         0         0         0
         0         0         0         0         0         0         0         0
         0         0         0         0         0         0         0         0
         0         0         0         0         0         0         0         0
         0         0         0         0         0         0         0         0
         0         0         0         0         0         0         0         0
         0         0         0         0         0         0         0         0
         0         0         0         0         0         0         0         0
         0         0         0         0         0         0         0         0
         0         0         0         0         0         0         0         0
         0         0         0         0         0         0         0         0
         0         0         0         0         0         0         0         0
         0         0         0         0         0         0         0         0
         0         0         0         0         0         0         0         0
         0         0         0         0         0         0         0         0
         0         0         0         0         0         0         0         0
         0         0         0         0         0         0         0         0
         0         0         0         0         0         0         0         0
         0         0         0         0         0         0         0         0
         0         0         0         0         0         0         0         0
         0         0         0         0         0         0         0         0
         0         0         0         0         0         0         0         0
         0         0         0         0         0         0         0         0
         0         0         0         0         0         0         0         0
         0         0         0         0         0         0         0         0
         0         0         0         0         0         0         0         0
         0         0         0         0         0         0         0         0
         0         0         0         0         0         0         0         0
         0         0         0         0         0         0         0         0
         0         0         0         0         0         0         0         0
         0         0         0         0         0         0         0         0
         0         0         0         0         0         0         0         0
         0         0         0         0         0         0         0         0
         0         0         0         0         0         0         0         0
         0         0         0         0         0         0         0         0
         0         0         0         0         0         0         0         0
         0         0         0         0         0         0         0         0
         0         0         0         0         0         0         0         0
         0         0         0         0         0         0         0         0
         0         0         0         0         0         0         0         0
         0         0         0         0         0         0         0         0
         0         0         0         0         0         0         0         0
         0         0         0         0         0         0         0         0
         0         0         0         0         0         0         0         0
         0         0         0         0         0         0         0         0
         0         0         0         0         0         0         0         0
         0         0         0         0         0         0         0         0
         0         0         0         0         0         0         0         0
         0         0         0         0         0         0         0         0
         0         0         0         0         0         0         0         0
         0         0         0         0         0         0         0         0
         0         0         0         0         0         0         0         0
         0         0         0         0         0         0         0         0
         0         0         0         0         0         0         0         0
         0         0         0         0         0         0         0         0
         0         0         0         0         0         0         0         0
         0         0         0         0         0         0         0         0
         0         0         0         0         0         0         0         0
         0         0         0         0         0         0         0         0
         0         0         0         0         0         0         0         0
         0         0         0         0         0         0         0         0
         0         0         0         0         0         0         0         0
         0         0         0         0         0         0         0         0
         0         0         0         0         0         0         0         0
         0         0         0         0         0         0         0         0
         0         0         0         0         0         0         0         0
         0         0         0         0         0         0         0         0
         0         0         0         0         0         0         0         0
         0         0         0         0         0         0         0         0
         0         0         0         0         0         0         0         0
         0         0         0         0         0         0         0         0
         0         0         0         0         0         0         0         0
         0         0         0         0         0         0         0         0
         0         0         0         0         0         0         0         0
         0         0         0         0         0         0         0         0
         0         0         0         0         0         0         0         0
         0         0         0         0         0         0         0         0
         0         0         0         0         0         0         0         0
         0         0         0         0         0         0         0         0
         0         0         0         0         0         0         0         0
         0         0         0         0         0         0         0         0
         0         0         0         0         0         0         0         0
         0         0         0         0         0         0         0         0
         0         0         0         0         0         0         0         0
         0         0         0         0         0         0         0         0
         0         0         0         0         0         0         0         0
         0         0         0         0         0         0         0         0
         0         0         0         0         0         0         0         0
         0         0         0         0         0         0         0         0
         0         0         0         0         0         0         0         0
         0         0         0         0         0         0         0         0
         0         0         0         0         0         0         0         0
         0         0         0         0         0         0         0         0
         0         0         0         0         0         0         0         0
         0         0         0         0         0         0         0         0
         0         0         0         0         0         0         0         0
         0         0         0         0         0         0         0         0
         0         0         0         0         0         0         0         0
         0         0         0         0         0         0         0         0
         0         0         0         0         0         0         0         0
         0         0         0         0         0         0         0         0
         0         0         0         0         0         0         0         0
         0         0         0         0         0         0         0         0
         0         0         0         0         0         0         0         0
         0         0         0         0         0         0         0         0
         0         0         0         0         0         0         0         0
         0         0         0         0         0         0         0         0
         0         0         0         0         0         0         0         0
         0         0         0         0         0         0         0         0
         0         0         0         0         0         0         0         0
         0         0         0         0         0         0         0         0
         0         0         0         0         0         0         0         0
         0         0         0         0         0         0         0         0
         0         0         0         0         0         0         0         0
         0         0         0         0         0         0         0         0
         0         0         0         0         0         0         0         0
         0         0         0         0         0         0         0         0
         0         0         0         0         0         0         0         0
         0         0         0         0         0         0         0         0
         0         0         0         0         0         0         0         0
         0         0         0         0         0         0         0         0
         0         0         0         0         0         0         0         0
         0         0         0         0         0         0         0         0
         0         0         0         0         0         0         0         0
         0         0         0         0         0         0         0         0
         0         0         0         0         0         0         0         0
         0         0         0         0         0         0         0         0
         0         0         0         0         0         0         0         0
         0         0         0         0         0         0         0         0
         0         0         0         0         0         0         0         0
         0         0         0         0         0         0         0         0
         0         0         0         0         0         0         0         0
         0         0         0         0         0         0         0         0
         0         0         0         0         0         0         0         0
         0         0         0         0         0         0         0         0
         0         0         0         0         0         0         0         0
         0         0         0         0         0         0         0         0
         0         0         0         0         0         0         0         0
         0         0         0         0         0         0         0         0
         0         0         0         0         0         0         0         0
         0         0         0         0         0         0         0         0
         0         0         0         0         0         0         0         0
         0         0         0         0         0         0         0         0
         0         0         0         0         0         0         0         0
         0         0         0         0         0         0         0         0
         0         0         0         0         0         0         0         0
         0         0         0         0         0         0         0         0
         0         0         0         0         0         0         0         0
         0         0         0         0         0         0         0         0
         0         0         0         0         0         0         0         0
         0         0         0         0         0         0         0         0
         0         0         0         0         0         0         0         0
         0         0         0         0         0         0         0         0
         0         0         0         0         0         0         0         0
         0         0         0         0         0         0         0         0
         0         0         0         0         0         0         0         0
         0         0         0         0         0         0         0         0
         0         0         0         0         0         0         0         0
         0         0         0         0         0         0         0         0
         0         0         0         0         0         0         0         0
         0         0         0         0         0         0         0         0
         0         0         0         0         0         0         0         0
         0         0         0         0         0         0         0         0
         0         0         0         0         0         0         0         0
         0         0         0         0         0         0         0         0
         0         0         0         0         0         0         0         0
         0         0         0         0         0         0         0         0
         0         0         0         0         0         0         0         0
         0         0         0         0         0         0         0         0
         0         0         0         0         0         0         0         0
         0         0         0         0         0         0         0         0
         0         0         0         0         0         0         0         0
         0         0         0         0         0         0         0         0
         0         0         0         0         0         0         0         0
         0         0         0         0         0         0         0         0
         0         0         0         0         0         0         0         0
         0         0         0         0         0         0         0         0
         0         0         0         0         0         0         0         0
         0         0         0         0         0         0         0         0
         0         0         0         0         0         0         0         0
         0         0         0         0         0         0         0         0
         0         0         0         0         0         0         0         0
         0         0         0         0         0         0         0         0
         0         0         0         0         0         0         0         0
         0         0         0         0         0         0         0         0
         0         0         0         0         0         0         0         0
         0         0         0         0         0         0         0         0
         0         0         0         0         0         0         0         0
         0         0         0         0         0         0         0         0
         0         0         0         0         0         0         0         0
         0         0         0         0         0         0         0         0
         0         0         0         0         0         0         0         0
         0         0         0         0         0         0         0         0
         0         0         0         0         0         0         0         0
         0         0         0         0         0         0         0         0
         0         0         0         0         0         0         0         0
         0         0         0         0         0         0         0         0
         0         0         0         0         0         0         0         0
         0         0         0         0         0         0         0         0
         0         0         0         0         0         0         0         0
         0         0         0         0         0         0         0         0
         0         0         0         0         0         0         0         0
         0         0         0         0         0         0         0         0
         0         0         0         0         0         0         0         0
         0         0         0         0         0         0         0         0
         0         0         0         0         0         0         0         0
         0         0         0         0         0         0         0         0
         0         0         0         0         0         0         0         0
         0         0         0         0         0         0         0         0
         0         0         0         0         0         0         0         0
         0         0         0         0         0         0         0         0
         0         0         0         0         0         0         0         0
         0         0         0         0         0         0         0         0
         0         0         0         0         0         0         0         0
         0         0         0         0         0         0         0         0
         0         0         0         0         0         0         0         0
         0         0         0         0         0         0         0         0
         0         0         0         0         0         0         0         0
         0         0         0         0         0         0         0         0
         0         0         0         0         0         0         0         0
         0         0         0         0         0         0         0         0
         0         0         0         0         0         0         0         0
         0         0         0         0         0         0         0         0
         0         0         0         0         0         0         0         0
         0         0         0         0         0         0         0         0
         0         0         0         0         0         0         0         0
         0         0         0         0         0         0         0         0
         0         0         0         0         0         0         0         0
         0         0         0         0         0         0         0         0
         0         0         0         0         0         0         0         0
         0         0         0         0         0         0         0         0
         0         0         0         0         0         0         0         0
         0         0         0         0         0         0         0         0
         0         0         0         0         0         0         0         0
         0         0         0         0         0         0         0         0
         0         0         0         0         0         0         0         0
         0         0         0         0         0         0         0         0
         0         0         0         0         0         0         0         0
         0         0         0         0         0         0         0         0
         0         0         0         0         0         0         0         0
         0         0         0         0         0         0         0         0
         0         0         0         0         0         0         0         0
         0         0         0         0         0         0         0         0
         0         0         0         0         0         0         0         0
         0         0         0         0         0         0         0         0
         0         0         0         0         0         0         0         0
         0         0         0         0         0         0         0         0
         0         0         0         0         0         0         0         0
         0         0         0         0         0         0         0         0
         0         0         0         0         0         0         0         0
         0         0         0         0         0         0         0         0
         0         0         0         0         0         0         0         0
         0         0         0         0         0         0         0         0
         0         0         0         0         0         0         0         0
         0         0         0         0         0         0         0         0
         0         0         0         0         0         0         0         0
         0         0         0         0         0         0         0         0
         0         0         0         0         0         0         0         0
         0         0         0         0         0         0         0         0
         0         0         0         0         0         0         0         0
         0         0         0         0         0         0         0         0
         0         0         0         0         0         0         0         0
         0         0         0         0         0         0         0         0
         0         0         0         0         0         0         0         0
         0         0         0         0         0         0         0         0
         0         0         0         0         0         0         0         0
         0         0         0         0         0         0         0         0
         0         0         0         0         0         0         0         0
         0         0         0         0         0         0         0         0
         0         0         0         0         0         0         0         0
         0         0         0         0         0         0         0         0
         0         0         0         0         0         0         0         0
         0         0         0         0         0         0         0         0
         0         0         0         0         0         0         0         0
         0         0         0         0         0         0         0         0
         0         0         0         0         0         0         0         0
         0         0         0         0         0         0         0         0
         0         0         0         0         0         0         0         0
         0         0         0         0         0         0         0         0
         0         0         0         0         0         0         0         0
         0         0         0         0         0         0         0         0
         0         0         0         0         0         0         0         0
         0         0         0         0         0         0         0         0
         0         0         0         0         0         0         0         0
         0         0         0         0         0         0         0         0
         0         0         0         0         0         0         0         0
         0         0         0         0         0         0         0         0
         0         0         0         0         0         0         0         0
         0         0         0         0         0         0         0         0
         0         0         0         0         0         0         0         0
         0         0         0         0         0         0         0         0
         0         0         0         0         0         0         0         0
         0         0         0         0         0         0         0         0
         0         0         0         0         0         0         0         0
         0         0         0         0         0         0         0         0
         0         0         0         0         0         0         0         0
         0         0         0         0         0         0         0         0
         0         0         0         0         0         0         0         0
         0         0         0         0         0         0         0         0
         0         0         0         0         0         0         0         0
         0         0         0         0         0         0         0         0
         0         0         0         0         0         0         0         0
         0         0         0         0         0         0         0         0
         0         0         0         0         0         0         0         0
         0         0         0         0         0         0         0         0
         0         0         0         0         0         0         0         0
         0         0         0         0         0         0         0         0
         0         0         0         0         0         0         0         0
         0         0         0         0         0         0         0         0
         0         0         0         0         0         0         0         0
         0         0         0         0         0         0         0         0
         0         0         0         0         0         0         0         0
         0         0         0         0         0         0         0         0
         0         0         0         0         0         0         0         0
         0         0         0         0         0         0         0         0
         0         0         0         0         0         0         0         0
         0         0         0         0         0         0         0         0
         0         0         0         0         0         0         0         0
         0         0         0         0         0         0         0         0
         0         0         0         0         0         0         0         0
         0         0         0         0         0         0         0         0
         0         0         0         0         0         0         0         0
         0         0         0         0         0         0         0         0
         0         0         0         0         0         0         0         0
         0         0         0         0         0         0         0         0
         0         0         0         0         0         0         0         0
         0         0         0         0         0         0         0         0
         0         0         0         0         0         0         0         0
         0         0         0         0         0         0         0         0
         0         0         0         0         0         0         0         0
         0         0         0         0         0         0         0         0
         0         0         0         0         0         0         0         0
         0         0         0         0         0         0         0         0
         0         0         0         0         0         0         0         0
         0         0         0         0         0         0         0         0
         0         0         0         0         0         0         0         0
         0         0         0         0         0         0         0         0
         0         0         0         0         0         0         0         0
         0         0         0         0         0         0         0         0
         0         0         0         0         0         0         0         0
         0         0         0         0         0         0         0         0
         0         0         0         0         0         0         0         0
         0         0         0         0         0         0         0         0
         0         0         0         0         0         0         0         0
         0         0         0         0         0         0         0         0
         0         0         0         0         0         0         0         0
         0         0         0         0         0         0         0         0
         0         0         0         0         0         0         0         0
         0         0         0         0         0         0         0         0
         0         0         0         0         0         0         0         0
         0         0         0         0         0         0         0         0
         0         0         0         0         0         0         0         0
         0         0         0         0         0         0         0         0
         0         0         0         0         0         0         0         0
         0         0         0         0         0         0         0         0
         0         0         0         0         0         0         0         0
         0         0         0         0         0         0         0         0
         0         0         0         0         0         0         0         0
         0         0         0         0         0         0         0         0
         0         0         0         0         0         0         0         0
         0         0         0         0         0         0         0         0
         0         0         0         0         0         0         0         0
         0         0         0         0         0         0         0         0
         0         0         0         0         0         0         0         0
         0         0         0         0         0         0         0         0
         0         0         0         0         0         0         0         0
         0         0         0         0         0         0         0         0
         0         0         0         0         0         0         0         0
         0         0         0         0         0         0         0         0
         0         0         0         0         0         0         0         0
         0         0         0         0         0         0         0         0
         0         0         0         0         0         0         0         0
         0         0         0         0         0         0         0         0
         0         0         0         0         0         0         0         0
         0         0         0         0         0         0         0         0
         0         0         0         0         0         0         0         0
         0         0         0         0         0         0         0         0
         0         0         0         0         0         0         0         0
         0         0         0         0         0         0         0         0
         0         0         0         0         0         0         0         0
         0         0         0         0         0         0         0         0
         0         0         0         0         0         0         0         0
         0         0         0         0         0         0         0         0
         0         0         0         0         0         0         0         0
         0         0         0         0         0         0         0         0
         0         0         0         0         0         0         0         0
         0         0         0         0         0         0         0         0
         0         0         0         0         0         0         0         0
         0         0         0         0         0         0         0         0
         0         0         0         0         0         0         0         0
         0         0         0         0         0         0         0         0
         0         0         0         0         0         0         0         0
         0         0         0         0         0         0         0         0
         0         0         0         0         0         0         0         0
         0         0         0         0         0         0         0         0
         0         0         0         0         0         0         0         0
         0         0         0         0         0         0         0         0
         0         0         0         0         0         0         0         0
         0         0         0         0         0         0         0         0
         0         0         0         0         0         0         0         0
         0         0         0         0         0         0         0         0
         0         0         0         0         0         0         0         0
         0         0         0         0         0         0         0         0
         0         0         0         0         0         0         0         0
         0         0         0         0         0         0         0         0
         0         0         0         0         0         0         0         0
         0         0         0         0         0         0         0         0
         0         0         0         0         0         0         0         0
         0         0         0         0         0         0         0         0
         0         0         0         0         0         0         0         0
         0         0         0         0         0         0         0         0
         0         0         0         0         0         0         0         0
         0         0         0         0         0         0         0         0
         0         0         0         0         0         0         0         0
         0         0         0         0         0         0         0         0
         0         0         0         0         0         0         0         0
         0         0         0         0         0         0         0         0
         0         0         0         0         0         0         0         0
         0         0         0         0         0         0         0         0
         0         0         0         0         0         0         0         0
         0         0         0         0         0         0         0         0
         0         0         0         0         0         0         0         0
         0         0         0         0         0         0         0         0
         0         0         0         0         0         0         0         0
         0         0         0         0         0         0         0         0
         0         0         0         0         0         0         0         0
         0         0         0         0         0         0         0         0
         0         0         0         0         0         0         0         0
         0         0         0         0         0         0         0         0
         0         0         0         0         0         0         0         0
         0         0         0         0         0         0         0         0
         0         0         0         0         0         0         0         0
         0         0         0         0         0         0         0         0
         0         0         0         0         0         0         0         0
         0         0         0         0         0         0         0         0
         0         0         0         0         0         0         0         0
         0         0         0         0         0         0         0         0
         0         0         0         0         0         0         0         0
         0         0         0         0         0         0         0         0
         0         0         0         0         0         0         0         0
         0         0         0         0         0         0         0         0
         0         0         0         0         0         0         0         0
         0         0         0         0         0         0         0         0
         0         0         0         0         0         0         0         0
         0         0         0         0         0         0         0         0
         0         0         0         0         0         0         0         0
         0         0         0         0         0         0         0         0
         0         0         0         0         0         0         0         0
         0         0         0         0         0         0         0         0
         0         0         0         0         0         0         0         0
         0         0         0         0         0         0         0         0
         0         0         0         0         0         0         0         0
         0         0         0         0         0         0         0         0
         0         0         0         0         0         0         0         0
         0         0         0         0         0         0         0         0
         0         0         0         0         0         0         0         0
         0         0         0         0         0         0         0         0
         0         0         0         0         0         0         0         0
         0         0         0         0         0         0         0         0
         0         0         0         0         0         0         0         0
         0         0         0         0         0         0         0         0
         0         0         0         0         0         0         0         0
         0         0         0         0         0         0         0         0
         0         0         0         0         0         0         0         0
         0         0         0         0         0         0         0         0
         0         0         0         0         0         0         0         0
         0         0         0         0         0         0         0         0
         0         0         0         0         0         0         0         0
         0         0         0         0         0         0         0         0
         0         0         0         0         0         0         0         0
         0         0         0         0         0         0         0         0
         0         0         0         0         0         0         0         0
         0         0         0         0         0         0         0         0
         0         0         0         0         0         0         0         0
         0         0         0         0         0         0         0         0
         0         0         0         0         0         0         0         0
         0         0         0         0         0         0         0         0
         0         0         0         0         0         0         0         0
         0         0         0         0         0         0         0         0
         0         0         0         0         0         0         0         0
         0         0         0         0         0         0         0         0
         0         0         0         0         0         0         0         0
         0         0         0         0         0         0         0         0
         0         0         0         0         0         0         0         0
         0         0         0         0         0         0         0         0
         0         0         0         0         0         0         0         0
         0         0         0         0         0         0         0         0
         0         0         0         0         0         0         0         0
         0         0         0         0         0         0         0         0
         0         0         0         0         0         0         0         0
         0         0         0         0         0         0         0         0
         0         0         0         0         0         0         0         0
         0         0         0         0         0         0         0         0
         0         0         0         0         0         0         0         0
         0         0         0         0         0         0         0         0
         0         0         0         0         0         0         0         0
         0         0         0         0         0         0         0         0
         0         0         0         0         0         0         0         0
         0         0         0         0         0         0         0         0
         0         0         0         0         0         0         0         0
         0         0         0         0         0         0         0         0
         0         0         0         0         0         0         0         0
         0         0         0         0         0         0         0         0
         0         0         0         0         0         0         0         0
         0         0         0         0         0         0         0         0
         0         0         0         0         0         0         0         0
         0         0         0         0         0         0         0         0
         0         0         0         0         0         0         0         0
         0         0         0         0         0         0         0         0
         0         0         0         0         0         0         0         0
         0         0         0         0         0         0         0         0
         0         0         0         0         0         0         0         0
         0         0         0         0         0         0         0         0
         0         0         0         0         0         0         0         0
         0         0         0         0         0         0         0         0
         0         0         0         0         0         0         0         0
         0         0         0         0         0         0         0         0
         0         0         0         0         0         0         0         0
         0         0         0         0         0         0         0         0
         0         0         0         0         0         0         0         0
         0         0         0         0         0         0         0         0
         0         0         0         0         0         0         0         0
         0         0         0         0         0         0         0         0
         0         0         0         0         0         0         0         0
         0         0         0         0         0         0         0         0
         0         0         0         0         0         0         0         0
         0         0         0         0         0         0         0         0
         0         0         0         0         0         0         0         0
         0         0         0         0         0         0         0         0
         0         0         0         0         0         0         0         0
         0         0         0         0         0         0         0         0
         0         0         0         0         0         0         0         0
         0         0         0         0         0         0         0         0
         0         0         0         0         0         0         0         0
         0         0         0         0         0         0         0         0
         0         0         0         0         0         0         0         0
         0         0         0         0         0         0         0         0
         0         0         0         0         0         0         0         0
         0         0         0         0         0         0         0         0
         0         0         0         0         0         0         0         0
         0         0         0         0         0         0         0         0
         0         0         0         0         0         0         0         0
         0         0         0         0         0         0         0         0
         0         0         0         0         0         0         0         0
         0         0         0         0         0         0         0         0
         0         0         0         0         0         0         0         0
         0         0         0         0         0         0         0         0
         0         0         0         0         0         0         0         0
         0         0         0         0         0         0         0         0
         0         0         0         0         0         0         0         0
         0         0         0         0         0         0         0         0
         0         0         0         0         0         0         0         0
         0         0         0         0         0         0         0         0
         0         0         0         0         0         0         0         0
         0         0         0         0         0         0         0         0
         0         0         0         0         0         0         0         0
         0         0         0         0         0         0         0         0
         0         0         0         0         0         0         0         0
         0         0         0         0         0         0         0         0
         0         0         0         0         0         0         0         0
         0         0         0         0         0         0         0         0
         0         0         0         0         0         0         0         0
         0         0         0         0         0         0         0         0
         0         0         0         0         0         0         0         0
         0         0         0         0         0         0         0         0
         0         0         0         0         0         0         0         0
         0         0         0         0         0         0         0         0
         0         0         0         0         0         0         0         0
         0         0         0         0         0         0         0         0
         0         0         0         0         0         0         0         0
         0         0         0         0         0         0         0         0
         0         0         0         0         0         0         0         0
         0         0         0         0         0         0         0         0
         0         0         0         0         0         0         0         0
         0         0         0         0         0         0         0         0
         0         0         0         0         0         0         0         0
         0         0         0         0         0         0         0         0
         0         0         0         0         0         0         0         0
         0         0         0         0         0         0         0         0
         0         0         0         0         0         0         0         0
         0         0         0         0         0         0         0         0
         0         0         0         0         0         0         0         0
         0         0         0         0         0         0         0         0
         0         0         0         0         0         0         0         0
         0         0         0         0         0         0         0         0
         0         0         0         0         0         0         0         0
         0         0         0         0         0         0         0         0
         0         0         0         0         0         0         0         0
         0         0         0         0         0         0         0         0
         0         0         0         0         0         0         0         0
         0         0         0         0         0         0         0         0
         0         0         0         0         0         0         0         0
         0         0         0         0         0         0         0         0
         0         0         0         0         0         0         0         0
         0         0         0         0         0         0         0         0
         0         0         0         0         0         0         0         0
         0         0         0         0         0         0         0         0
         0         0         0         0         0         0         0         0
         0         0         0         0         0         0         0         0
         0         0         0         0         0         0         0         0
         0         0         0         0         0         0         0         0
         0         0         0         0         0         0         0         0
         0         0         0         0         0         0         0         0
         0         0         0         0         0         0         0         0
         0         0         0         0         0         0         0         0
         0         0         0         0         0         0         0         0
         0         0         0         0         0         0         0         0
         0         0         0         0         0         0         0         0
         0         0         0         0         0         0         0         0
         0         0         0         0         0         0         0         0
         0         0         0         0         0         0         0         0
         0         0         0         0         0         0         0         0
         0         0         0         0         0         0         0         0
         0         0         0         0         0         0         0         0
         0         0         0         0         0         0         0         0
         0         0         0         0         0         0         0         0
         0         0         0         0         0         0         0         0
         0         0         0         0         0         0         0         0
         0         0         0         0         0         0         0         0
         0         0         0         0         0         0         0         0
         0         0         0         0         0         0         0         0
         0         0         0         0         0         0         0         0
         0         0         0         0         0         0         0         0
         0         0         0         0         0         0         0         0
         0         0         0         0         0         0         0         0
         0         0         0         0         0         0         0         0
         0         0         0         0         0         0         0         0
         0         0         0         0         0         0         0         0
         0         0         0         0         0         0         0         0
         0         0         0         0         0         0         0         0
         0         0         0         0         0         0         0         0
         0         0         0         0         0         0         0         0
         0         0         0         0         0         0         0         0
         0         0         0         0         0         0         0         0
         0         0         0         0         0         0         0         0
         0         0         0         0         0         0         0         0
         0         0         0         0         0         0         0         0
         0         0         0         0         0         0         0         0
         0         0         0         0         0         0         0         0
         0         0         0         0         0         0         0         0
         0         0         0         0         0         0         0         0
         0         0         0         0         0         0         0         0
         0         0         0         0         0         0         0         0
         0         0         0         0         0         0         0         0
         0         0         0         0         0         0         0         0
         0         0         0         0         0         0         0         0
         0         0         0         0         0         0         0         0
         0         0         0         0         0         0         0         0
         0         0         0         0         0         0         0         0
         0         0         0         0         0         0         0         0
         0         0         0         0         0         0         0         0
         0         0         0         0         0         0         0         0
         0         0         0         0         0         0         0         0
         0         0         0         0         0         0         0         0
         0         0         0         0         0         0         0         0
         0         0         0         0         0         0         0         0
         0         0         0         0         0         0         0         0
         0         0         0         0         0         0         0         0
         0         0         0         0         0         0         0         0
         0         0         0         0         0         0         0         0
         0         0         0         0         0         0         0         0
         0         0         0         0         0         0         0         0
         0         0         0         0         0         0         0         0
         0         0         0         0         0         0         0         0
         0         0         0         0         0         0         0         0
         0         0         0         0         0         0         0         0
         0         0         0         0         0         0         0         0
         0         0         0         0         0         0         0         0
         0         0         0         0         0         0         0         0
         0         0         0         0         0         0         0         0
         0         0         0         0         0         0         0         0
         0         0         0         0         0         0         0         0
         0         0         0         0         0         0         0         0
         0         0         0         0         0         0         0         0
         0         0         0         0         0         0         0         0
         0         0         0         0         0         0         0         0
         0         0         0         0         0         0         0         0
         0         0         0         0         0         0         0         0
         0         0         0         0         0         0         0         0
         0         0         0         0         0         0         0         0
         0         0         0         0         0         0         0         0
         0         0         0         0         0         0         0         0
         0         0         0         0         0         0         0         0
         0         0         0         0         0         0         0         0
         0         0         0         0         0         0         0         0
         0         0         0         0         0         0         0         0
         0         0         0         0         0         0         0         0
         0         0         0         0         0         0         0         0
         0         0         0         0         0         0         0         0
         0         0         0         0         0         0         0         0
         0         0         0         0         0         0         0         0
         0         0         0         0         0         0         0         0
         0         0         0         0         0         0         0         0
         0         0         0         0         0         0         0         0
         0         0         0         0         0         0         0         0
         0         0         0         0         0         0         0         0
         0         0         0         0         0         0         0         0
         0         0         0         0         0         0         0         0
         0         0         0         0         0         0         0         0
         0         0         0         0         0         0         0         0
         0         0         0         0         0         0         0         0
         0         0         0         0         0         0         0         0
         0         0         0         0         0         0         0         0
         0         0         0         0         0         0         0         0
         0         0         0         0         0         0         0         0
         0         0         0         0         0         0         0         0
         0         0         0         0         0         0         0         0
         0         0         0         0         0         0         0         0
         0         0         0         0         0         0         0         0
         0         0         0         0         0         0         0         0
         0         0         0         0         0         0         0         0
         0         0         0         0         0         0         0         0
         0         0         0         0         0         0         0         0
         0         0         0         0         0         0         0         0
         0         0         0         0         0         0         0         0
         0         0         0         0         0         0         0         0
         0         0         0         0         0         0         0         0
         0         0         0         0         0         0         0         0
         0         0         0         0         0         0         0         0
         0         0         0         0         0         0         0         0
         0         0         0         0         0         0         0         0
         0         0         0         0         0         0         0         0
         0         0         0         0         0         0         0         0
         0         0         0         0         0         0         0         0
         0         0         0         0         0         0         0         0
         0         0         0         0         0         0         0         0
         0         0         0         0         0         0         0         0
         0         0         0         0         0         0         0         0
         0         0         0         0         0         0         0         0
         0         0         0         0         0         0         0         0
         0         0         0         0         0         0         0         0
         0         0         0         0         0         0         0         0
         0         0         0         0         0         0         0         0
         0         0         0         0         0         0         0         0
         0         0         0         0         0         0         0         0
         0         0         0         0         0         0         0         0
         0         0         0         0         0         0         0         0
         0         0         0         0         0         0         0         0
         0         0         0         0         0         0         0         0
         0         0         0         0         0         0         0         0
         0         0         0         0         0         0         0         0
         0         0         0         0         0         0         0         0
         0         0         0         0         0         0         0         0
         0         0         0         0         0         0         0         0
         0         0         0         0         0         0         0         0
         0         0         0         0         0         0         0         0
         0         0         0         0         0         0         0         0
         0         0         0         0         0         0         0         0
         0         0         0         0         0         0         0         0
         0         0         0         0         0         0         0         0
         0         0         0         0         0         0         0         0
         0         0         0         0         0         0         0         0
         0         0         0         0         0         0         0         0
         0         0         0         0         0         0         0         0
         0         0         0         0         0         0         0         0
         0         0         0         0         0         0         0         0
         0         0         0         0         0         0         0         0
         0         0         0         0         0         0         0         0
         0         0         0         0         0         0         0         0
         0         0         0         0         0         0         0         0
         0         0         0         0         0         0         0         0
         0         0         0         0         0         0         0         0
         0         0         0         0         0         0         0         0
         0         0         0         0         0         0         0         0
         0         0         0         0         0         0         0         0
         0         0         0         0         0         0         0         0
         0         0         0         0         0         0         0         0
         0         0         0         0         0         0         0         0
         0         0         0         0         0         0         0         0
         0         0         0         0         0         0         0         0
         0         0         0         0         0         0         0         0
         0         0         0         0         0         0         0         0
         0         0         0         0         0         0         0         0
         0         0         0         0         0         0         0         0
         0         0         0         0         0         0         0         0
         0         0         0         0         0         0         0         0
         0         0         0         0         0         0         0         0
         0         0         0         0         0         0         0         0
         0         0         0         0         0         0         0         0
         0         0         0         0         0         0         0         0
         0         0         0         0         0         0         0         0
         0         0         0         0         0         0         0         0
         0         0         0         0         0         0         0         0
         0         0         0         0         0         0         0         0
         0         0         0         0         0         0         0         0
         0         0         0         0         0         0         0         0
         0         0         0         0         0         0         0         0
         0         0         0         0         0         0         0         0
         0         0         0         0         0         0         0         0
         0         0         0         0         0         0         0         0
         0         0         0         0         0         0         0         0
         0         0         0         0         0         0         0         0
         0         0         0         0         0         0         0         0
         0         0         0         0         0         0         0         0
         0         0         0         0         0         0         0         0
         0         0         0         0         0         0         0         0
         0         0         0         0         0         0         0         0
         0         0         0         0         0         0         0         0
         0         0         0         0         0         0         0         0
         0         0         0         0         0         0         0         0
         0         0         0         0         0         0         0         0
         0         0         0         0         0         0         0         0
         0         0         0         0         0         0         0         0
         0         0         0         0         0         0         0         0
         0         0         0         0         0         0         0         0
         0         0         0         0         0         0         0         0
         0         0         0         0         0         0         0         0
         0         0         0         0         0         0         0         0
         0         0         0         0         0         0         0         0
         0         0         0         0         0         0         0         0
         0         0         0         0         0         0         0         0
         0         0         0         0         0         0         0         0
         0         0         0         0         0         0         0         0
         0         0         0         0         0         0         0         0
         0         0         0         0         0         0         0         0
         0         0         0         0         0         0         0         0
         0         0         0         0         0         0         0         0
         0         0         0         0         0         0         0         0
         0         0         0         0         0         0         0         0
         0         0         0         0         0         0         0         0
         0         0         0         0         0         0         0         0
         0         0         0         0         0         0         0         0
         0         0         0         0         0         0         0         0
         0         0         0         0         0         0         0         0
         0         0         0         0         0         0         0         0
         0         0         0         0         0         0         0         0
         0         0         0         0         0         0         0         0
         0         0         0         0         0         0         0         0
         0         0         0         0         0         0         0         0
         0         0         0         0         0         0         0         0
         0         0         0         0         0         0         0         0
         0         0         0         0         0         0         0         0
         0         0         0         0         0         0         0         0
         0         0         0         0         0         0         0         0
         0         0         0         0         0         0         0         0
         0         0         0         0         0         0         0         0
         0         0         0         0         0         0         0         0
         0         0         0         0         0         0         0         0
         0         0         0         0         0         0         0         0
         0         0         0         0         0         0         0         0
         0         0         0         0         0         0         0         0
         0         0         0         0         0         0         0         0
         0         0         0         0         0         0         0         0
         0         0         0         0         0         0         0         0
         0         0         0         0         0         0         0         0
         0         0         0         0         0         0         0         0
         0         0         0         0         0         0         0         0
         0         0         0         0         0         0         0         0
         0         0         0         0         0         0         0         0
         0         0         0         0         0         0         0         0
         0         0         0         0         0         0         0         0
         0         0         0         0         0         0         0         0
         0         0         0         0         0         0         0         0
         0         0         0         0         0         0         0         0
         0         0         0         0         0         0         0         0
         0         0         0         0         0         0         0         0
         0         0         0         0         0         0         0         0
         0         0         0         0         0         0         0         0
         0         0         0         0         0         0         0         0
         0         0         0         0         0         0         0         0
         0         0         0         0         0         0         0         0
         0         0         0         0         0         0         0         0
         0         0         0         0         0         0         0         0
         0         0         0         0         0         0         0         0
         0         0         0         0         0         0         0         0
         0         0         0         0         0         0         0         0
         0         0         0         0         0         0         0         0
         0         0         0         0         0         0         0         0
         0         0         0         0         0         0         0         0
         0         0         0         0         0         0         0         0
         0         0         0         0         0         0         0         0
         0         0         0         0         0         0         0         0
         0         0         0         0         0         0         0         0
         0         0         0         0         0         0         0         0
         0         0         0         0         0         0         0         0
         0         0         0         0         0         0         0         0
         0         0         0         0         0         0         0         0
         0         0         0         0         0         0         0         0
         0         0         0         0         0         0         0         0
         0         0         0         0         0         0         0         0
         0         0         0         0         0         0         0         0
         0         0         0         0         0         0         0         0
         0         0         0         0         0         0         0         0
         0         0         0         0         0         0         0         0
         0         0         0         0         0         0         0         0
         0         0         0         0         0         0         0         0
         0         0         0         0         0         0         0         0
         0         0         0         0         0         0         0         0
         0         0         0         0         0         0         0         0
         0         0         0         0         0         0         0         0
         0         0         0         0         0         0         0         0
         0         0         0         0         0         0         0         0
         0         0         0         0         0         0         0         0
         0         0         0         0         0         0         0         0
         0         0         0         0         0         0         0         0
         0         0         0         0         0         0         0         0
         0         0         0         0         0         0         0         0
         0         0         0         0         0         0         0         0
         0         0         0         0         0         0         0         0
         0         0         0         0         0         0         0         0
         0         0         0         0         0         0         0         0
         0         0         0         0         0         0         0         0
         0         0         0         0         0         0         0         0
         0         0         0         0         0         0         0         0
         0         0         0         0         0         0         0         0
         0         0         0         0         0         0         0         0
         0         0         0         0         0         0         0         0
         0         0         0         0         0         0         0         0
         0         0         0         0         0         0         0         0
         0         0         0         0         0         0         0         0
         0         0         0         0         0         0         0         0
         0         0         0         0         0         0         0         0
         0         0         0         0         0         0         0         0
         0         0         0         0         0         0         0         0
         0         0         0         0         0         0         0         0
         0         0         0         0         0         0         0         0
         0         0         0         0         0         0         0         0
         0         0         0         0         0         0         0         0
         0         0         0         0         0         0         0         0
         0         0         0         0         0         0         0         0
         0         0         0         0         0         0         0         0
         0         0         0         0         0         0         0         0
         0         0         0         0         0         0         0         0
         0         0         0         0         0         0         0         0
         0         0         0         0         0         0         0         0
         0         0         0         0         0         0         0         0
         0         0         0         0         0         0         0         0
         0         0         0         0         0         0         0         0
         0         0         0         0         0         0         0         0
         0         0         0         0         0         0         0         0
         0         0         0         0         0         0         0         0
         0         0         0         0         0         0         0         0
         0         0         0         0         0         0         0         0
         0         0         0         0         0         0         0         0
         0         0         0         0         0         0         0         0
         0         0         0         0         0         0         0         0
         0         0         0         0         0         0         0         0
         0         0         0         0         0         0         0         0
         0         0         0         0         0         0         0         0
         0         0         0         0         0         0         0         0
         0         0         0         0         0         0         0         0
         0         0         0         0         0         0         0         0
         0         0         0         0         0         0         0         0
         0         0         0         0         0         0         0         0
         0         0         0         0         0         0         0         0
         0         0         0         0         0         0         0         0
         0         0         0         0         0         0         0         0
         0         0         0         0         0         0         0         0
         0         0         0         0         0         0         0         0
         0         0         0         0         0         0         0         0
         0         0         0         0         0         0         0         0
         0         0         0         0         0         0         0         0
         0         0         0         0         0         0         0         0
         0         0         0         0         0         0         0         0
         0         0         0         0         0         0         0         0
         0         0         0         0         0         0         0         0
         0         0         0         0         0         0         0         0
         0         0         0         0         0         0         0         0
         0         0         0         0         0         0         0         0
         0         0         0         0         0         0         0         0
         0         0         0         0         0         0         0         0
         0         0         0         0         0         0         0         0
         0         0         0         0         0         0         0         0
         0         0         0         0         0         0         0         0
         0         0         0         0         0         0         0         0
         0         0         0         0         0         0         0         0
         0         0         0         0         0         0         0         0
         0         0         0         0         0         0         0         0
         0         0         0         0         0         0         0         0
         0         0         0         0         0         0         0         0
         0         0         0         0         0         0         0         0
         0         0         0         0         0         0         0         0
         0         0         0         0         0         0         0         0
         0         0         0         0         0         0         0         0
         0         0         0         0         0         0         0         0
         0         0         0         0         0         0         0         0
         0         0         0         0         0         0         0         0
         0         0         0         0         0         0         0         0
         0         0         0         0         0         0         0         0
         0         0         0         0         0         0         0         0
         0         0         0         0         0         0         0         0
         0         0         0         0         0         0         0         0
         0         0         0         0         0         0         0         0
         0         0         0         0         0         0         0         0
         0         0         0         0         0         0         0         0
         0         0         0         0         0         0         0         0
         0         0         0         0         0         0         0         0
         0         0         0         0         0         0         0         0
         0         0         0         0         0         0         0         0
         0         0         0         0         0         0         0         0
         0         0         0         0         0         0         0         0
         0         0         0         0         0         0         0         0
         0         0         0         0         0         0         0         0
         0         0         0         0         0         0         0         0
         0         0         0         0         0         0         0         0
         0         0         0         0         0         0         0         0
         0         0         0         0         0         0         0         0
         0         0         0         0         0         0         0         0
         0         0         0         0         0         0         0         0
         0         0         0         0         0         0         0         0
         0         0         0         0         0         0         0         0
         0         0         0         0         0         0         0         0
         0         0         0         0         0         0         0         0
         0         0         0         0         0         0         0         0
         0         0         0         0         0         0         0         0
         0         0         0         0         0         0         0         0
         0         0         0         0         0         0         0         0
         0         0         0         0         0         0         0         0
         0         0         0         0         0         0         0         0
         0         0         0         0         0         0         0         0
         0         0         0         0         0         0         0         0
         0         0         0         0         0         0         0         0
         0         0         0         0         0         0         0         0
         0         0         0         0         0         0         0         0
         0         0         0         0         0         0         0         0
         0         0         0         0         0         0         0         0
         0         0         0         0         0         0         0         0
         0         0         0         0         0         0         0         0
         0         0         0         0         0         0         0         0
         0         0         0         0         0         0         0         0
         0         0         0         0         0         0         0         0
         0         0         0         0         0         0         0         0
         0         0         0         0         0         0         0         0
         0         0         0         0         0         0         0         0
         0         0         0         0         0         0         0         0
         0         0         0         0         0         0         0         0
         0         0         0         0         0         0         0         0
         0         0         0         0         0         0         0         0
         0         0         0         0         0         0         0         0
         0         0         0         0         0         0         0         0
         0         0         0         0         0         0         0         0
         0         0         0         0         0         0         0         0
         0         0         0         0         0         0         0         0
         0         0         0         0         0         0         0         0
         0         0         0         0         0         0         0         0
         0         0         0         0         0         0         0         0
         0         0         0         0         0         0         0         0
         0         0         0         0         0         0         0         0
         0         0         0         0         0         0         0         0
         0         0         0         0         0         0         0         0
         0         0         0         0         0         0         0         0
         0         0         0         0         0         0         0         0
         0         0         0         0         0         0         0         0
         0         0         0         0         0         0         0         0
         0         0         0         0         0         0         0         0
         0         0         0         0         0         0         0         0
         0         0         0         0         0         0         0         0
         0         0         0         0         0         0         0         0
         0         0         0         0         0         0         0         0
         0         0         0         0         0         0         0         0
         0         0         0         0         0         0         0         0
         0         0         0         0         0         0         0         0
         0         0         0         0         0         0         0         0
         0         0         0         0         0         0         0         0
         0         0         0         0         0         0         0         0
         0         0         0         0         0         0         0         0
         0         0         0         0         0         0         0         0
         0         0         0         0         0         0         0         0
         0         0         0         0         0         0         0         0
         0         0         0         0         0         0         0         0
         0         0         0         0         0         0         0         0
         0         0         0         0         0         0         0         0
         0         0         0         0         0         0         0         0
         0         0         0         0         0         0         0         0
         0         0         0         0         0         0         0         0
         0         0         0         0         0         0         0         0
         0         0         0         0         0         0         0         0
         0         0         0         0         0         0         0         0
         0         0         0         0         0         0         0         0
         0         0         0         0         0         0         0         0
         0         0         0         0         0         0         0         0
         0         0         0         0         0         0         0         0
         0         0         0         0         0         0         0         0
         0         0         0         0         0         0         0         0
         0         0         0         0         0         0         0         0
         0         0         0         0         0         0         0         0
         0         0         0         0         0         0         0         0
         0         0         0         0         0         0         0         0
         0         0         0         0         0         0         0         0
         0         0         0         0         0         0         0         0
         0         0         0         0         0         0         0         0
         0         0         0         0         0         0         0         0
         0         0         0         0         0         0         0         0
         0         0         0         0         0         0         0         0
         0         0         0         0         0         0         0         0
         0         0         0         0         0         0         0         0
         0         0         0         0         0         0         0         0
         0         0         0         0         0         0         0         0
         0         0         0         0         0         0         0         0
         0         0         0         0         0         0         0         0
         0         0         0         0         0         0         0         0
         0         0         0         0         0         0         0         0
         0         0         0         0         0         0         0         0
         0         0         0         0         0         0         0         0
         0         0         0         0         0         0         0         0
         0         0         0         0         0         0         0         0
         0         0         0         0         0         0         0         0
         0         0         0         0         0         0         0         0
         0         0         0         0         0         0         0         0
         0         0         0         0         0         0         0         0
         0         0         0         0         0         0         0         0
         0         0         0         0         0         0         0         0
         0         0         0         0         0         0         0         0
         0         0         0         0         0         0         0         0
         0         0         0         0         0         0         0         0
         0         0         0         0         0         0         0         0
         0         0         0         0         0         0         0         0
         0         0         0         0         0         0         0         0
         0         0         0         0         0         0         0         0
         0         0         0         0         0         0         0         0
         0         0         0         0         0         0         0         0
         0         0         0         0         0         0         0         0
         0         0         0         0         0         0         0         0
         0         0         0         0         0         0         0         0
         0         0         0         0         0         0         0         0
         0         0         0         0         0         0         0         0
         0         0         0         0         0         0         0         0
         0         0         0         0         0         0         0         0
         0         0         0         0         0         0         0         0
         0         0         0         0         0         0         0         0
         0         0         0         0         0         0         0         0
         0         0         0         0         0         0         0         0
         0         0         0         0         0         0         0         0
         0         0         0         0         0         0         0         0
         0         0         0         0         0         0         0         0
         0         0         0         0         0         0         0         0
         0         0         0         0         0         0         0         0
         0         0         0         0         0         0         0         0
         0         0         0         0         0         0         0         0
         0         0         0         0         0         0         0         0
         0         0         0         0         0         0         0         0
         0         0         0         0         0         0         0         0
         0         0         0         0         0         0         0         0
         0         0         0         0         0         0         0         0
         0         0         0         0         0         0         0         0
         0         0         0         0         0         0         0         0
         0         0         0         0         0         0         0         0
         0         0         0         0         0         0         0         0
         0         0         0         0         0         0         0         0
         0         0         0         0         0         0         0         0
         0         0         0         0         0         0         0         0
         0         0         0         0         0         0         0         0
         0         0         0         0         0         0         0         0
         0         0         0         0         0         0         0         0
         0         0         0         0         0         0         0         0
         0         0         0         0         0         0         0         0
         0         0         0         0         0         0         0         0
         0         0         0         0         0         0         0         0
         0         0         0         0         0         0         0         0
         0         0         0         0         0         0         0         0
         0         0         0         0         0         0         0         0
         0         0         0         0         0         0         0         0
         0         0         0         0         0         0         0         0
         0         0         0         0         0         0         0         0
         0         0         0         0         0         0         0         0
         0         0         0         0         0         0         0         0
         0         0         0         0         0         0         0         0
         0         0         0         0         0         0         0         0
         0         0         0         0         0         0         0         0
         0         0         0         0         0         0         0         0
         0         0         0         0         0         0         0         0
         0         0         0         0         0         0         0         0
         0         0         0         0         0         0         0         0
         0         0         0         0         0         0         0         0
         0         0         0         0         0         0         0         0
         0         0         0         0         0         0         0         0
         0         0         0         0         0         0         0         0
         0         0         0         0         0         0         0         0
         0         0         0         0         0         0         0         0
         0         0         0         0         0         0         0         0
         0         0         0         0         0         0         0         0
         0         0         0         0         0         0         0         0
         0         0         0         0         0         0         0         0
         0         0         0         0         0         0         0         0
         0         0         0         0         0         0         0         0
         0         0         0         0         0         0         0         0
         0         0         0         0         0         0         0         0
         0         0         0         0         0         0         0         0
         0         0         0         0         0         0         0         0
         0         0         0         0         0         0         0         0
         0         0         0         0         0         0         0         0
         0         0         0         0         0         0         0         0
         0         0         0         0         0         0         0         0
         0         0         0         0         0         0         0         0
         0         0         0         0         0         0         0         0
         0         0         0         0         0         0         0         0
         0         0         0         0         0         0         0         0
         0         0         0         0         0         0         0         0
         0         0         0         0         0         0         0         0
         0         0         0         0         0         0         0         0
         0         0         0         0         0         0         0         0
         0         0         0         0         0         0         0         0
         0         0         0         0         0         0         0         0
         0         0         0         0         0         0         0         0
         0         0         0         0         0         0         0         0
         0         0         0         0         0         0         0         0
         0         0         0         0         0         0         0         0
         0         0         0         0         0         0         0         0
         0         0         0         0         0         0         0         0
         0         0         0         0         0         0         0         0
         0         0         0         0         0         0         0         0
         0         0         0         0         0         0         0         0
         0         0         0         0         0         0         0         0
         0         0         0         0         0         0         0         0
         0         0         0         0         0         0         0         0
         0         0         0         0         0         0         0         0
         0         0         0         0         0         0         0         0
         0         0         0         0         0         0         0         0
         0         0         0         0         0         0         0         0
         0         0         0         0         0         0         0         0
         0         0         0         0         0         0         0         0
         0         0         0         0         0         0         0         0
         0         0         0         0         0         0         0         0
         0         0         0         0         0         0         0         0
         0         0         0         0         0         0         0         0
         0         0         0         0         0         0         0         0
         0         0         0         0         0         0         0         0
         0         0         0         0         0         0         0         0
         0         0         0         0         0         0         0         0
         0         0         0         0         0         0         0         0
         0         0         0         0         0         0         0         0
         0         0         0         0         0         0         0         0
         0         0         0         0         0         0         0         0
         0         0         0         0         0         0         0         0
         0         0         0         0         0         0         0         0
         0         0         0         0         0         0         0         0
         0         0         0         0         0         0         0         0
         0         0         0         0         0         0         0         0
         0         0         0         0         0         0         0         0
         0         0         0         0         0         0         0         0
         0         0         0         0         0         0         0         0
         0         0         0         0         0         0         0         0
         0         0         0         0         0         0         0         0
         0         0         0         0         0         0         0         0
         0         0         0         0         0         0         0         0
         0         0         0         0         0         0         0         0
         0         0         0         0         0         0         0         0
         0         0         0         0         0         0         0         0
         0         0         0         0         0         0         0         0
         0         0         0         0         0         0         0         0
         0         0         0         0         0         0         0         0
         0         0         0         0         0         0         0         0
         0         0         0         0         0         0         0         0
         0         0         0         0         0         0         0         0
         0         0         0         0         0         0         0         0
         0         0         0         0         0         0         0         0
         0         0         0         0         0         0         0         0
         0         0         0         0         0         0         0         0
         0         0         0         0         0         0         0         0
         0         0         0         0         0         0         0         0
         0         0         0         0         0         0         0         0
         0         0         0         0         0         0         0         0
         0         0         0         0         0         0         0         0
         0         0         0         0         0         0         0         0
         0         0         0         0         0         0         0         0
         0         0         0         0         0         0         0         0
         0         0         0         0         0         0         0         0
         0         0         0         0         0         0         0         0
         0         0         0         0         0         0         0         0
         0         0         0         0         0         0         0         0
         0         0         0         0         0         0         0         0
         0         0         0         0         0         0         0         0
         0         0         0         0         0         0         0         0
         0         0         0         0         0         0         0         0
         0         0         0         0         0         0         0         0
         0         0         0         0         0         0         0         0
         0         0         0         0         0         0         0         0
         0         0         0         0         0         0         0         0
         0         0         0         0         0         0         0         0
         0         0         0         0         0         0         0         0
         0         0         0         0         0         0         0         0
         0         0         0         0         0         0         0         0
         0         0         0         0         0         0         0         0
         0         0         0         0         0         0         0         0
         0         0         0         0         0         0         0         0
         0         0         0         0         0         0         0         0
         0         0         0         0         0         0         0         0
         0         0         0         0         0         0         0         0
         0         0         0         0         0         0         0         0
         0         0         0         0         0         0         0         0
         0         0         0         0         0         0         0         0
         0         0         0         0         0         0         0         0
         0         0         0         0         0         0         0         0
         0         0         0         0         0         0         0         0
         0         0         0         0         0         0         0         0
         0         0         0         0         0         0         0         0
         0         0         0         0         0         0         0         0
         0         0         0         0         0         0         0         0
         0         0         0         0         0         0         0         0
         0         0         0         0         0         0         0         0
         0         0         0         0         0         0         0         0
         0         0         0         0         0         0         0         0
         0         0         0         0         0         0         0         0
         0         0         0         0         0         0         0         0
         0         0         0         0         0         0         0         0
         0         0         0         0         0         0         0         0
         0         0         0         0         0         0         0         0
         0         0         0         0         0         0         0         0
         0         0         0         0         0         0         0         0
         0         0         0         0         0         0         0         0
         0         0         0         0         0         0         0         0
         0         0         0         0         0         0         0         0
         0         0         0         0         0         0         0         0
         0         0         0         0         0         0         0         0
         0         0         0         0         0         0         0         0
         0         0         0         0         0         0         0         0
         0         0         0         0         0         0         0         0
         0         0         0         0         0         0         0         0
         0         0         0         0         0         0         0         0
         0         0         0         0         0         0         0         0
         0         0         0         0         0         0         0         0
         0         0         0         0         0         0         0         0
         0         0         0         0         0         0         0         0
         0         0         0         0         0         0         0         0
         0         0         0         0         0         0         0         0
         0         0         0         0         0         0         0         0
         0         0         0         0         0         0         0         0
         0         0         0         0         0         0         0         0
         0         0         0         0         0         0         0         0
         0         0         0         0         0         0         0         0
         0         0         0         0         0         0         0         0
         0         0         0         0         0         0         0         0
         0         0         0         0         0         0         0         0
         0         0         0         0         0         0         0         0
         0         0         0         0         0         0         0         0
         0         0         0         0         0         0         0         0
         0         0         0         0         0         0         0         0
         0         0         0         0         0         0         0         0
         0         0         0         0         0         0         0         0
         0         0         0         0         0         0         0         0
         0         0         0         0         0         0         0         0
         0         0         0         0         0         0         0         0
         0         0         0         0         0         0         0         0
         0         0         0         0         0         0         0         0
         0         0         0         0         0         0         0         0
         0         0         0         0         0         0         0         0
         0         0         0         0         0         0         0         0
         0         0         0         0         0         0         0         0
         0         0         0         0         0         0         0         0
         0         0         0         0         0         0         0         0
         0         0         0         0         0         0         0         0
         0         0         0         0         0         0         0         0
         0         0         0         0         0         0         0         0
         0         0         0         0         0         0         0         0
         0         0         0         0         0         0         0         0
         0         0         0         0         0         0         0         0
         0         0         0         0         0         0         0         0
         0         0         0         0         0         0         0         0
         0         0         0         0         0         0         0         0
         0         0         0         0         0         0         0         0
         0         0         0         0         0         0         0         0
         0         0         0         0         0         0         0         0
         0         0         0         0         0         0         0         0
         0         0         0         0         0         0         0         0
         0         0         0         0         0         0         0         0
         0         0         0         0         0         0         0         0
         0         0         0         0         0         0         0         0
         0         0         0         0         0         0         0         0
         0         0         0         0         0         0         0         0
         0         0         0         0         0         0         0         0
         0         0         0         0         0         0         0         0
         0         0         0         0         0         0         0         0
         0         0         0         0         0         0         0         0
         0         0         0         0         0         0         0         0
         0         0         0         0         0         0         0         0
         0         0         0         0         0         0         0         0
         0         0         0         0         0         0         0         0
         0         0         0         0         0         0         0         0
         0         0         0         0         0         0         0         0
         0         0         0         0         0         0         0         0
         0         0         0         0         0         0         0         0
         0         0         0         0         0         0         0         0
         0         0         0         0         0         0         0         0
         0         0         0         0         0         0         0         0
         0         0         0         0         0         0         0         0
         0         0         0         0         0         0         0         0
         0         0         0         0         0         0         0         0
         0         0         0         0         0         0         0         0
         0         0         0         0         0         0         0         0
         0         0         0         0         0         0         0         0
         0         0         0         0         0         0         0         0
         0         0         0         0         0         0         0         0
         0         0         0         0         0         0         0         0
         0         0         0         0         0         0         0         0
         0         0         0         0         0         0         0         0
         0         0         0         0         0         0         0         0
         0         0         0         0         0         0         0         0
         0         0         0         0         0         0         0         0
         0         0         0         0         0         0         0         0
         0         0         0         0         0         0         0         0
         0         0         0         0         0         0         0         0
         0         0         0         0         0         0         0         0
         0         0         0         0         0         0         0         0
         0         0         0         0         0         0         0         0
         0         0         0         0         0         0         0         0
         0         0         0         0         0         0         0         0
         0         0         0         0         0         0         0         0
         0         0         0         0         0         0         0         0
         0         0         0         0         0         0         0         0
         0         0         0         0         0         0         0         0
         0         0         0         0         0         0         0         0
         0         0         0         0         0         0         0         0
         0         0         0         0         0         0         0         0
         0         0         0         0         0         0         0         0
         0         0         0         0         0         0         0         0
         0         0         0         0         0         0         0         0
         0         0         0         0         0         0         0         0
         0         0         0         0         0         0         0         0
         0         0         0         0         0         0         0         0
         0         0         0         0         0         0         0         0
         0         0         0         0         0         0         0         0
         0         0         0         0         0         0         0         0
         0         0         0         0         0         0         0         0
         0         0         0         0         0         0         0         0
         0         0         0         0         0         0         0         0
         0         0         0         0         0         0         0         0
         0         0         0         0         0         0         0         0
         0         0         0         0         0         0         0         0
         0         0         0         0         0         0         0         0
         0         0         0         0         0         0         0         0
         0         0         0         0         0         0         0         0
         0         0         0         0         0         0         0         0
         0         0         0         0         0         0         0         0
         0         0         0         0         0         0         0         0
         0         0         0         0         0         0         0         0
         0         0         0         0         0         0         0         0
         0         0         0         0         0         0         0         0
         0         0         0         0         0         0         0         0
         0         0         0         0         0         0         0         0
         0         0         0         0         0         0         0         0
         0         0         0         0         0         0         0         0
         0         0         0         0         0         0         0         0
         0         0         0         0         0         0         0         0
         0         0         0         0         0         0         0         0
         0         0         0         0         0         0         0         0
         0         0         0         0         0         0         0         0
         0         0         0         0         0         0         0         0
         0         0         0         0         0         0         0         0
         0         0         0         0         0         0         0         0
         0         0         0         0         0         0         0         0
         0         0         0         0         0         0         0         0
         0         0         0         0         0         0         0         0
         0         0         0         0         0         0         0         0
         0         0         0         0         0         0         0         0
         0         0         0         0         0         0         0         0
         0         0         0         0         0         0         0         0
         0         0         0         0         0         0         0         0
         0         0         0         0         0         0         0         0
         0         0         0         0         0         0         0         0
         0         0         0         0         0         0         0         0
         0         0         0         0         0         0         0         0
         0         0         0         0         0         0         0         0
         0         0         0         0         0         0         0         0
         0         0         0         0         0         0         0         0
         0         0         0         0         0         0         0         0
         0         0         0         0         0         0         0         0
         0         0         0         0         0         0         0         0
         0         0         0         0         0         0         0         0
         0         0         0         0         0         0         0         0
         0         0         0         0         0         0         0         0
         0         0         0         0         0         0         0         0
         0         0         0         0         0         0         0         0
         0         0         0         0         0         0         0         0
         0         0         0         0         0         0         0         0
         0         0         0         0         0         0         0         0
         0         0         0         0         0         0         0         0
         0         0         0         0         0         0         0         0
         0         0         0         0         0         0         0         0
         0         0         0         0         0         0         0         0
         0         0         0         0         0         0         0         0
         0         0         0         0         0         0         0         0
         0         0         0         0         0         0         0         0
         0         0         0         0         0         0         0         0
         0         0         0         0         0         0         0         0
         0         0         0         0         0         0         0         0
         0         0         0         0         0         0         0         0
         0         0         0         0         0         0         0         0
         0         0         0         0         0         0         0         0
         0         0         0         0         0         0         0         0
         0         0         0         0         0         0         0         0
         0         0         0         0         0         0         0         0
         0         0         0         0         0         0         0         0
         0         0         0         0         0         0         0         0
         0         0         0         0         0         0         0         0
         0         0         0         0         0         0         0         0
         0         0         0         0         0         0         0         0
         0         0         0         0         0         0         0         0
         0         0         0         0         0         0         0         0
         0         0         0         0         0         0         0         0
         0         0         0         0         0         0         0         0
         0         0         0         0         0         0         0         0
         0         0         0         0         0         0         0         0
         0         0         0         0         0         0         0         0
         0         0         0         0         0         0         0         0
         0         0         0         0         0         0         0         0
         0         0         0         0         0         0         0         0
         0         0         0         0         0         0         0         0
         0         0         0         0         0         0         0         0
         0         0         0         0         0         0         0         0
         0         0         0         0         0         0         0         0
         0         0         0         0         0         0         0         0
         0         0         0         0         0         0         0         0
         0         0         0         0         0         0         0         0
         0         0         0         0         0         0         0         0
         0         0         0         0         0         0         0         0
         0         0         0         0         0         0         0         0
         0         0         0         0         0         0         0         0
         0         0         0         0         0         0         0         0
         0         0         0         0         0         0         0         0
         0         0         0         0         0         0         0         0
         0         0         0         0         0         0         0         0
         0         0         0         0         0         0         0         0
         0         0         0         0         0         0         0         0
         0         0         0         0         0         0         0         0
         0         0         0         0         0         0         0         0
         0         0         0         0         0         0         0         0
         0         0         0         0         0         0         0         0
         0         0         0         0         0         0         0         0
         0         0         0         0         0         0         0         0
         0         0         0         0         0         0         0         0
         0         0         0         0         0         0         0         0
         0         0         0         0         0         0         0         0
         0         0         0         0         0         0         0         0
         0         0         0         0         0         0         0         0
         0         0         0         0         0         0         0         0
         0         0         0         0         0         0         0         0
         0         0         0         0         0         0         0         0
         0         0         0         0         0         0         0         0
         0         0         0         0         0         0         0         0
         0         0         0         0         0         0         0         0
         0         0         0         0         0         0         0         0
         0         0         0         0         0         0         0         0
         0         0         0         0         0         0         0         0
         0         0         0         0         0         0         0         0
         0         0         0         0         0         0         0         0
         0         0         0         0         0         0         0         0
         0         0         0         0         0         0         0         0
         0         0         0         0         0         0         0         0
         0         0         0         0         0         0         0         0
         0         0         0         0         0         0         0         0
         0         0         0         0         0         0         0         0
         0         0         0         0         0         0         0         0
         0         0         0         0         0         0         0         0
         0         0         0         0         0         0         0         0
         0         0         0         0         0         0         0         0
         0         0         0         0         0         0         0         0
         0         0         0         0         0         0         0         0
         0         0         0         0         0         0         0         0
         0         0         0         0         0         0         0         0
         0         0         0         0         0         0         0         0
         0         0         0         0         0         0         0         0
         0         0         0         0         0         0         0         0
         0         0         0         0         0         0         0         0
         0         0         0         0         0         0         0         0
         0         0         0         0         0         0         0         0
         0         0         0         0         0         0         0         0
         0         0         0         0         0         0         0         0
         0         0         0         0         0         0         0         0
         0         0         0         0         0         0         0         0
         0         0         0         0         0         0         0         0
         0         0         0         0         0         0         0         0
         0         0         0         0         0         0         0         0
         0         0         0         0         0         0         0         0
         0         0         0         0         0         0         0         0
         0         0         0         0         0         0         0         0
         0         0         0         0         0         0         0         0
         0         0         0         0         0         0         0         0
         0         0         0         0         0         0         0         0
         0         0         0         0         0         0         0         0
         0         0         0         0         0         0         0         0
         0         0         0         0         0         0         0         0
         0         0         0         0         0         0         0         0
         0         0         0         0         0         0         0         0
         0         0         0         0         0         0         0         0
         0         0         0         0         0         0         0         0
         0         0         0         0         0         0         0         0
         0         0         0         0         0         0         0         0
         0         0         0         0         0         0         0         0
         0         0         0         0         0         0         0         0
         0         0         0         0         0         0         0         0
         0         0         0         0         0         0         0         0
         0         0         0         0         0         0         0         0
         0         0         0         0         0         0         0         0
         0         0         0         0         0         0         0         0
         0         0         0         0         0         0         0         0
         0         0         0         0         0         0         0         0
         0         0         0         0         0         0         0         0
         0         0         0         0         0         0         0         0
         0         0         0         0         0         0         0         0
         0         0         0         0         0         0         0         0
         0         0         0         0         0         0         0         0
         0         0         0         0         0         0         0         0
         0         0         0         0         0         0         0         0
         0         0         0         0         0         0         0         0
         0         0         0         0         0         0         0         0
         0         0         0         0         0         0         0         0
         0         0         0         0         0         0         0         0
         0         0         0         0         0         0         0         0
         0         0         0         0         0         0         0         0
         0         0         0         0         0         0         0         0
         0         0         0         0         0         0         0         0
         0         0         0         0         0         0         0         0
         0         0         0         0         0         0         0         0
         0         0         0         0         0         0         0         0
         0         0         0         0         0         0         0         0
         0         0         0         0         0         0         0         0
         0         0         0         0         0         0         0         0
         0         0         0         0         0         0         0         0
         0         0         0         0         0         0         0         0
         0         0         0         0         0         0         0         0
         0         0         0         0         0         0         0         0
         0         0         0         0         0         0         0         0
         0         0         0         0         0         0         0         0
         0         0         0         0         0         0         0         0
         0         0         0         0         0         0         0         0
         0         0         0         0         0         0         0         0
         0         0         0         0         0         0         0         0
         0         0         0         0         0         0         0         0
         0         0         0         0         0         0         0         0
         0         0         0         0         0         0         0         0
         0         0         0         0         0         0         0         0
         0         0         0         0         0         0         0         0
         0         0         0         0         0         0         0         0
         0         0         0         0         0         0         0         0
         0         0         0         0         0         0         0         0
         0         0         0         0         0         0         0         0
         0         0         0         0         0         0         0         0
         0         0         0         0         0         0         0         0
         0         0         0         0         0         0         0         0
         0         0         0         0         0         0         0         0
         0         0         0         0         0         0         0         0
         0         0         0         0         0         0         0         0
         0         0         0         0         0         0         0         0
         0         0         0         0         0         0         0         0
         0         0         0         0         0         0         0         0
         0         0         0         0         0         0         0         0
         0         0         0         0         0         0         0         0
         0         0         0         0         0         0         0         0
         0         0         0         0         0         0         0         0
         0         0         0         0         0         0         0         0
         0         0         0         0         0         0         0         0
         0         0         0         0         0         0         0         0
         0         0         0         0         0         0         0         0
         0         0         0         0         0         0         0         0
         0         0         0         0         0         0         0         0
         0         0         0         0         0         0         0         0
         0         0         0         0         0         0         0         0
         0         0         0         0         0         0         0         0
         0         0         0         0         0         0         0         0
         0         0         0         0         0         0         0         0
         0         0         0         0         0         0         0         0
         0         0         0         0         0         0         0         0
         0         0         0         0         0         0         0         0
         0         0         0         0         0         0         0         0
         0         0         0         0         0         0         0         0
         0         0         0         0         0         0         0         0
         0         0         0         0         0         0         0         0
         0         0         0         0         0         0         0         0
         0         0         0         0         0         0         0         0
         0         0         0         0         0         0         0         0
         0         0         0         0         0         0         0         0
         0         0         0         0         0         0         0         0
         0         0         0         0         0         0         0         0
         0         0         0         0         0         0         0         0
         0         0         0         0         0         0         0         0
         0         0         0         0         0         0         0         0
         0         0         0         0         0         0         0         0
         0         0         0         0         0         0         0         0
         0         0         0         0         0         0         0         0
         0         0         0         0         0         0         0         0
         0         0         0         0         0         0         0         0
         0         0         0         0         0         0         0         0
         0         0         0         0         0         0         0         0
         0         0         0         0         0         0         0         0
         0         0         0         0         0         0         0         0
         0         0         0         0         0         0         0         0
         0         0         0         0         0         0         0         0
         0         0         0         0         0         0         0         0
         0         0         0         0         0         0         0         0
         0         0         0         0         0         0         0         0
         0         0         0         0         0         0         0         0
         0         0         0         0         0         0         0         0
         0         0         0         0         0         0         0         0
         0         0         0         0         0         0         0         0
         0         0         0         0         0         0         0         0
         0         0         0         0         0         0         0         0
         0         0         0         0         0         0         0         0
         0         0         0         0         0         0         0         0
         0         0         0         0         0         0         0         0
         0         0         0         0         0         0         0         0
         0         0         0         0         0         0         0         0
         0         0         0         0         0         0         0         0
         0         0         0         0         0         0         0         0
         0         0         0         0         0         0         0         0
         0         0         0         0         0         0         0         0
         0         0         0         0         0         0         0         0
         0         0         0         0         0         0         0         0
         0         0         0         0         0         0         0         0
         0         0         0         0         0         0         0         0
         0         0         0         0         0         0         0         0
         0         0         0         0         0         0         0         0
         0         0         0         0         0         0         0         0
         0         0         0         0         0         0         0         0
         0         0         0         0         0         0         0         0
         0         0         0         0         0         0         0         0
         0         0         0         0         0         0         0         0
         0         0         0         0         0         0         0         0
         0         0         0         0         0         0         0         0
         0         0         0         0         0         0         0         0
         0         0         0         0         0         0         0         0
         0         0         0         0         0         0         0         0
         0         0         0         0         0         0         0         0
         0         0         0         0         0         0         0         0
         0         0         0         0         0         0         0         0
         0         0         0         0         0         0         0         0
         0         0         0         0         0         0         0         0
         0         0         0         0         0         0         0         0
         0         0         0         0         0         0         0         0
         0         0         0         0         0         0         0         0
         0         0         0         0         0         0         0         0
         0         0         0         0         0         0         0         0
         0         0         0         0         0         0         0         0
         0         0         0         0         0         0         0         0
         0         0         0         0         0         0         0         0
         0         0         0         0         0         0         0         0
         0         0         0         0         0         0         0         0
         0         0         0         0         0         0         0         0
         0         0         0         0         0         0         0         0
         0         0         0         0         0         0         0         0
         0         0         0         0         0         0         0         0
         0         0         0         0         0         0         0         0
         0         0         0         0         0         0         0         0
         0         0         0         0         0         0         0         0
         0         0         0         0         0         0         0         0
         0         0         0         0         0         0         0         0
         0         0         0         0         0         0         0         0
         0         0         0         0         0         0         0         0
         0         0         0         0         0         0         0         0
         0         0         0         0         0         0         0         0
         0         0         0         0         0         0         0         0
         0         0         0         0         0         0         0         0
         0         0         0         0         0         0         0         0
         0         0         0         0         0         0         0         0
         0         0         0         0         0         0         0         0
         0         0         0         0         0         0         0         0
         0         0         0         0         0         0         0         0
         0         0         0         0         0         0         0         0
         0         0         0         0         0         0         0         0
         0         0         0         0         0         0         0         0
         0         0         0         0         0         0         0         0
         0         0         0         0         0         0         0         0
         0         0         0         0         0         0         0         0
         0         0         0         0         0         0         0         0
         0         0         0         0         0         0         0         0
         0         0         0         0         0         0         0         0
         0         0         0         0         0         0         0         0
         0         0         0         0         0         0         0         0
         0         0         0         0         0         0         0         0
         0         0         0         0         0         0         0         0
         0         0         0         0         0         0         0         0
         0         0         0         0         0         0         0         0
         0         0         0         0         0         0         0         0
         0         0         0         0         0         0         0         0
         0         0         0         0         0         0         0         0
         0         0         0         0         0         0         0         0
         0         0         0         0         0         0         0         0
         0         0         0         0         0         0         0         0
         0         0         0         0         0         0         0         0
         0         0         0         0         0         0         0         0
         0         0         0         0         0         0         0         0
         0         0         0         0         0         0         0         0
         0         0         0         0         0         0         0         0
         0         0         0         0         0         0         0         0
         0         0         0         0         0         0         0         0
         0         0         0         0         0         0         0         0
         0         0         0         0         0         0         0         0
         0         0         0         0         0         0         0         0
         0         0         0         0         0         0         0         0
         0         0         0         0         0         0         0         0
         0         0         0         0         0         0         0         0
         0         0         0         0         0         0         0         0
         0         0         0         0         0         0         0         0
         0         0         0         0         0         0         0         0
         0         0         0         0         0         0         0         0
         0         0         0         0         0         0         0         0
         0         0         0         0         0         0         0         0
         0         0         0         0         0         0         0         0
         0         0         0         0         0         0         0         0
         0         0         0         0         0         0         0         0
         0         0         0         0         0         0         0         0
         0         0         0         0         0         0         0         0
         0         0         0         0         0         0         0         0
         0         0         0         0         0         0         0         0
         0         0         0         0         0         0         0         0
         0         0         0         0         0         0         0         0
         0         0         0         0         0         0         0         0
         0         0         0         0         0         0         0         0
         0         0         0         0         0         0         0         0
         0         0         0         0         0         0         0         0
         0         0         0         0         0         0         0         0
         0         0         0         0         0         0         0         0
         0         0         0         0         0         0         0         0
         0         0         0         0         0         0         0         0
         0         0         0         0         0         0         0         0
         0         0         0         0         0         0         0         0
         0         0         0         0         0         0         0         0
         0         0         0         0         0         0         0         0
         0         0         0         0         0         0         0         0
         0         0         0         0         0         0         0         0
         0         0         0         0         0         0         0         0
         0         0         0         0         0         0         0         0
         0         0         0         0         0         0         0         0
         0         0         0         0         0         0         0         0
         0         0         0         0         0         0         0         0
         0         0         0         0         0         0         0         0
         0         0         0         0         0         0         0         0
         0         0         0         0         0         0         0         0
         0         0         0         0         0         0         0         0
         0         0         0         0         0         0         0         0
         0         0         0         0         0         0         0         0
         0         0         0         0         0         0         0         0
         0         0         0         0         0         0         0         0
         0         0         0         0         0         0         0         0
         0         0         0         0         0         0         0         0
         0         0         0         0         0         0         0         0
         0         0         0         0         0         0         0         0
         0         0         0         0         0         0         0         0
         0         0         0         0         0         0         0         0
         0         0         0         0         0         0         0         0
         0         0         0         0         0         0         0         0
         0         0         0         0         0         0         0         0
         0         0         0         0         0         0         0         0
         0         0         0         0         0         0         0         0
         0         0         0         0         0         0         0         0
         0         0         0         0         0         0         0         0
         0         0         0         0         0         0         0         0
         0         0         0         0         0         0         0         0
         0         0         0         0         0         0         0         0
         0         0         0         0         0         0         0         0
         0         0         0         0         0         0         0         0
         0         0         0         0         0         0         0         0
         0         0         0         0         0         0         0         0
         0         0         0         0         0         0         0         0
         0         0         0         0         0         0         0         0
         0         0         0         0         0         0         0         0
         0         0         0         0         0         0         0         0
         0         0         0         0         0         0         0         0
         0         0         0         0         0         0         0         0
         0         0         0         0         0         0         0         0
         0         0         0         0         0         0         0         0
         0         0         0         0         0         0         0         0
         0         0         0         0         0         0         0         0
         0         0         0         0         0         0         0         0
         0         0         0         0         0         0         0         0
         0         0         0         0         0         0         0         0
         0         0         0         0         0         0         0         0
         0         0         0         0         0         0         0         0
         0         0         0         0         0         0         0         0
         0         0         0         0         0         0         0         0
         0         0         0         0         0         0         0         0
         0         0         0         0         0         0         0         0
         0         0         0         0         0         0         0         0
         0         0         0         0         0         0         0         0
         0         0         0         0         0         0         0         0
         0         0         0         0         0         0         0         0
         0         0         0         0         0         0         0         0
         0         0         0         0         0         0         0         0
         0         0         0         0         0         0         0         0
         0         0         0         0         0         0         0         0
         0         0         0         0         0         0         0         0
         0         0         0         0         0         0         0         0
         0         0         0         0         0         0         0         0
         0         0         0         0         0         0         0         0
         0         0         0         0         0         0         0         0
         0         0         0         0         0         0         0         0
         0         0         0         0         0         0         0         0
         0         0         0         0         0         0         0         0
         0         0         0         0         0         0         0         0
         0         0         0         0         0         0         0         0
         0         0         0         0         0         0         0         0
         0         0         0         0         0         0         0         0
         0         0         0         0         0         0         0         0
         0         0         0         0         0         0         0         0
         0         0         0         0         0         0         0         0
         0         0         0         0         0         0         0         0
         0         0         0         0         0         0         0         0
         0         0         0         0         0         0         0         0
         0         0         0         0         0         0         0         0
         0         0         0         0         0         0         0         0
         0         0         0         0         0         0         0         0
         0         0         0         0         0         0         0         0
         0         0         0         0         0         0         0         0
         0         0         0         0         0         0         0         0
         0         0         0         0         0         0         0         0
         0         0         0         0         0         0         0         0
         0         0         0         0         0         0         0         0
         0         0         0         0         0         0         0         0
         0         0         0         0         0         0         0         0
         0         0         0         0         0         0         0         0
         0         0         0         0         0         0         0         0
         0         0         0         0         0         0         0         0
         0         0         0         0         0         0         0         0
         0         0         0         0         0         0         0         0
         0         0         0         0         0         0         0         0
         0         0         0         0         0         0         0         0
         0         0         0         0         0         0         0         0
         0         0         0         0         0         0         0         0
         0         0         0         0         0         0         0         0
         0         0         0         0         0         0         0         0
         0         0         0         0         0         0         0         0
         0         0         0         0         0         0         0         0
         0         0         0         0         0         0         0         0
         0         0         0         0         0         0         0         0
         0         0         0         0         0         0         0         0
         0         0         0         0         0         0         0         0
         0         0         0         0         0         0         0         0
         0         0         0         0         0         0         0         0
         0         0         0         0         0         0         0         0
         0         0         0         0         0         0         0         0
         0         0         0         0         0         0         0         0
         0         0         0         0         0         0         0         0
         0         0         0         0         0         0         0         0
         0         0         0         0         0         0         0         0
         0         0         0         0         0         0         0         0
         0         0         0         0         0         0         0         0
         0         0         0         0         0         0         0         0
         0         0         0         0         0         0         0         0
         0         0         0         0         0         0         0         0
         0         0         0         0         0         0         0         0
         0         0         0         0         0         0         0         0
         0         0         0         0         0         0         0         0
         0         0         0         0         0         0         0         0
         0         0         0         0         0         0         0         0
         0         0         0         0         0         0         0         0
         0         0         0         0         0         0         0         0
         0         0         0         0         0         0         0         0
         0         0         0         0         0         0         0         0
         0         0         0         0         0         0         0         0
         0         0         0         0         0         0         0         0
         0         0         0         0         0         0         0         0
         0         0         0         0         0         0         0         0
         0         0         0         0         0         0         0         0
         0         0         0         0         0         0         0         0
         0         0         0         0         0         0         0         0
         0         0         0         0         0         0         0         0
         0         0         0         0         0         0         0         0
         0         0         0         0         0         0         0         0
         0         0         0         0         0         0         0         0
         0         0         0         0         0         0         0         0
         0         0         0         0         0         0         0         0
         0         0         0         0         0         0         0         0
         0         0         0         0         0         0         0         0
         0         0         0         0         0         0         0         0
         0         0         0         0         0         0         0         0
         0         0         0         0         0         0         0         0
         0         0         0         0         0         0         0         0
         0         0         0         0         0         0         0         0
         0         0         0         0         0         0         0         0
         0         0         0         0         0         0         0         0
         0         0         0         0         0         0         0         0
         0         0         0         0         0         0         0         0
         0         0         0         0         0         0         0         0
         0         0         0         0         0         0         0         0
         0         0         0         0         0         0         0         0
         0         0         0         0         0         0         0         0
         0         0         0         0         0         0         0         0
         0         0         0         0         0         0         0         0
         0         0         0         0         0         0         0         0
         0         0         0         0         0         0         0         0
         0         0         0         0         0         0         0         0
         0         0         0         0         0         0         0         0
         0         0         0         0         0         0         0         0
         0         0         0         0         0         0         0         0
         0         0         0         0         0         0         0         0
         0         0         0         0         0         0         0         0
         0         0         0         0         0         0         0         0
         0         0         0         0         0         0         0         0
         0         0         0         0         0         0         0         0
         0         0         0         0         0         0         0         0
         0         0         0         0         0         0         0         0
         0         0         0         0         0         0         0         0
         0         0         0         0         0         0         0         0
         0         0         0         0         0         0         0         0
         0         0         0         0         0         0         0         0
         0         0         0         0         0         0         0         0
         0         0         0         0         0         0         0         0
         0         0         0         0         0         0         0         0
         0         0         0         0         0         0         0         0
         0         0         0         0         0         0         0         0
         0         0         0         0         0         0         0         0
         0         0         0         0         0         0         0         0
         0         0         0         0         0         0         0         0
         0         0         0         0         0         0         0         0
         0         0         0         0         0         0         0         0
         0         0         0         0         0         0         0         0
         0         0         0         0         0         0         0         0
         0         0         0         0         0         0         0         0
         0         0         0         0         0         0         0         0
         0         0         0         0         0         0         0         0
         0         0         0         0         0         0         0         0
         0         0         0         0         0         0         0         0
         0         0         0         0         0         0         0         0
         0         0         0         0         0         0         0         0
         0         0         0         0         0         0         0         0
         0         0         0         0         0         0         0         0
         0         0         0         0         0         0         0         0
         0         0         0         0         0         0         0         0
         0         0         0         0         0         0         0         0
         0         0         0         0         0         0         0         0
         0         0         0         0         0         0         0         0
         0         0         0         0         0         0         0         0
         0         0         0         0         0         0         0         0
         0         0         0         0         0         0         0         0
         0         0         0         0         0         0         0         0
         0         0         0         0         0         0         0         0
         0         0         0         0         0         0         0         0
         0         0         0         0         0         0         0         0
         0         0         0         0         0         0         0         0
         0         0         0         0         0         0         0         0
         0         0         0         0         0         0         0         0
         0         0         0         0         0         0         0         0
         0         0         0         0         0         0         0         0
         0         0         0         0         0         0         0         0
         0         0         0         0         0         0         0         0
         0         0         0         0         0         0         0         0
         0         0         0         0         0         0         0         0
         0         0         0         0         0         0         0         0
         0         0         0         0         0         0         0         0
         0         0         0         0         0         0         0         0
         0         0         0         0         0         0         0         0
         0         0         0         0         0         0         0         0
         0         0         0         0         0         0         0         0
         0         0         0         0         0         0         0         0
         0         0         0         0         0         0         0         0
         0         0         0         0         0         0         0         0
         0         0         0         0         0         0         0         0
         0         0         0         0         0         0         0         0
         0         0         0         0         0         0         0         0
         0         0         0         0         0         0         0         0
         0         0         0         0         0         0         0         0
         0         0         0         0         0         0         0         0
         0         0         0         0         0         0         0         0
         0         0         0         0         0         0         0         0
         0         0         0         0         0         0         0         0
         0         0         0         0         0         0         0         0
         0         0         0         0         0         0         0         0
         0         0         0         0         0         0         0         0
         0         0         0         0         0         0         0         0
         0         0         0         0         0         0         0         0
         0         0         0         0         0         0         0         0
         0         0         0         0         0         0         0         0
         0         0         0         0         0         0         0         0
         0         0         0         0         0         0         0         0
         0         0         0         0         0         0         0         0
         0         0         0         0         0         0         0         0
         0         0         0         0         0         0         0         0
         0         0         0         0         0         0         0         0
         0         0         0         0         0         0         0         0
         0         0         0         0         0         0         0         0
         0         0         0         0         0         0         0         0
         0         0         0         0         0         0         0         0
         0         0         0         0         0         0         0         0
         0         0         0         0         0         0         0         0
         0         0         0         0         0         0         0         0
         0         0         0         0         0         0         0         0
         0         0         0         0         0         0         0         0
         0         0         0         0         0         0         0         0
         0         0         0         0         0         0         0         0
         0         0         0         0         0         0         0         0
         0         0         0         0         0         0         0         0
         0         0         0         0         0         0         0         0
         0         0         0         0         0         0         0         0
         0         0         0         0         0         0         0         0
         0         0         0         0         0         0         0         0
         0         0         0         0         0         0         0         0
         0         0         0         0         0         0         0         0
         0         0         0         0         0         0         0         0
         0         0         0         0         0         0         0         0
         0         0         0         0         0         0         0         0
         0         0         0         0         0         0         0         0
         0         0         0         0         0         0         0         0
         0         0         0         0         0         0         0         0
         0         0         0         0         0         0         0         0
         0         0         0         0         0         0         0         0
         0         0         0         0         0         0         0         0
         0         0         0         0         0         0         0         0
         0         0         0         0         0         0         0         0
         0         0         0         0         0         0         0         0
         0         0         0         0         0         0         0         0
         0         0         0         0         0         0         0         0
         0         0         0         0         0         0         0         0
         0         0         0         0         0         0         0         0
         0         0         0         0         0         0         0         0
         0         0         0         0         0         0         0         0
         0         0         0         0         0         0         0         0
         0         0         0         0         0         0         0         0
         0         0         0         0         0         0         0         0
         0         0         0         0         0         0         0         0
         0         0         0         0         0         0         0         0
         0         0         0         0         0         0         0         0
         0         0         0         0         0         0         0         0
         0         0         0         0         0         0         0         0
         0         0         0         0         0         0         0         0
         0         0         0         0         0         0         0         0
         0         0         0         0         0         0         0         0
         0         0         0         0         0         0         0         0
         0         0         0         0         0         0         0         0
         0         0         0         0         0         0         0         0
         0         0         0         0         0         0         0         0
         0         0         0         0         0         0         0         0
         0         0         0         0         0         0         0         0
         0         0         0         0         0         0         0         0
         0         0         0         0         0         0         0         0
         0         0         0         0         0         0         0         0
         0         0         0         0         0         0         0         0
         0         0         0         0         0         0         0         0
         0         0         0         0         0         0         0         0
         0         0         0         0         0         0         0         0
         0         0         0         0         0         0         0         0
         0         0         0         0         0         0         0         0
         0         0         0         0         0         0         0         0
         0         0         0         0         0         0         0         0
         0         0         0         0         0         0         0         0
         0         0         0         0         0         0         0         0
         0         0         0         0         0         0         0         0
         0         0         0         0         0         0         0         0
         0         0         0         0         0         0         0         0
         0         0         0         0         0         0         0         0
         0         0         0         0         0         0         0         0
         0         0         0         0         0         0         0         0
         0         0         0         0         0         0         0         0
         0         0         0         0         0         0         0         0
         0         0         0         0         0         0         0         0
         0         0         0         0         0         0         0         0
         0         0         0         0         0         0         0         0
         0         0         0         0         0         0         0         0
         0         0         0         0         0         0         0         0
         0         0         0         0         0         0         0         0
         0         0         0         0         0         0         0         0
         0         0         0         0         0         0         0         0
         0         0         0         0         0         0         0         0
         0         0         0         0         0         0         0         0
         0         0         0         0         0         0         0         0
         0         0         0         0         0         0         0         0
         0         0         0         0         0         0         0         0
         0         0         0         0         0         0         0         0
         0         0         0         0         0         0         0         0
         0         0         0         0         0         0         0         0
         0         0         0         0         0         0         0         0
         0         0         0         0         0         0         0         0
         0         0         0         0         0         0         0         0
         0         0         0         0         0         0         0         0
         0         0         0         0         0         0         0         0
         0         0         0         0         0         0         0         0
         0         0         0         0         0         0         0         0
         0         0         0         0         0         0         0         0
         0         0         0         0         0         0         0         0
         0         0         0         0         0         0         0         0
         0         0         0         0         0         0         0         0
         0         0         0         0         0         0         0         0
         0         0         0         0         0         0         0         0
         0         0         0         0         0         0         0         0
         0         0         0         0         0         0         0         0
         0         0         0         0         0         0         0         0
         0         0         0         0         0         0         0         0
         0         0         0         0         0         0         0         0
         0         0         0         0         0         0         0         0
         0         0         0         0         0         0         0         0
         0         0         0         0         0         0         0         0
         0         0         0         0         0         0         0         0
         0         0         0         0         0         0         0         0
         0         0         0         0         0         0         0         0
         0         0         0         0         0         0         0         0
         0         0         0         0         0         0         0         0
         0         0         0         0         0         0         0         0
         0         0         0         0         0         0         0         0
         0         0         0         0         0         0         0         0
         0         0         0         0         0         0         0         0
         0         0         0         0         0         0         0         0
         0         0         0         0         0         0         0         0
         0         0         0         0         0         0         0         0
         0         0         0         0         0         0         0         0
         0         0         0         0         0         0         0         0
         0         0         0         0         0         0         0         0
         0         0         0         0         0         0         0         0
         0         0         0         0         0         0         0         0
         0         0         0         0         0         0         0         0
         0         0         0         0         0         0         0         0
         0         0         0         0         0         0         0         0
         0         0         0         0         0         0         0         0
         0         0         0         0         0         0         0         0
         0         0         0         0         0         0         0         0
         0         0         0         0         0         0         0         0
         0         0         0         0         0         0         0         0
         0         0         0         0         0         0         0         0
         0         0         0         0         0         0         0         0
         0         0         0         0         0         0         0         0
         0         0         0         0         0         0         0         0
         0         0         0         0         0         0         0         0
         0         0         0         0         0         0         0         0
         0         0         0         0         0         0         0         0
         0         0         0         0         0         0         0         0
         0         0         0         0         0         0         0         0
         0         0         0         0         0         0         0         0
         0         0         0         0         0         0         0         0
         0         0         0         0         0         0         0         0
         0         0         0         0         0         0         0         0
         0         0         0         0         0         0         0         0
         0         0         0         0         0         0         0         0
         0         0         0         0         0         0         0         0
         0         0         0         0         0         0         0         0
         0         0         0         0         0         0         0         0
         0         0         0         0         0         0         0         0
         0         0         0         0         0         0         0         0
         0         0         0         0         0         0         0         0
         0         0         0         0         0         0         0         0
         0         0         0         0         0         0         0         0
         0         0         0         0         0         0         0         0
         0         0         0         0         0         0         0         0
         0         0         0         0         0         0         0         0
         0         0         0         0         0         0         0         0
         0         0         0         0         0         0         0         0
         0         0         0         0         0         0         0         0
         0         0         0         0         0         0         0         0
         0         0         0         0         0         0         0         0
         0         0         0         0         0         0         0         0
         0         0         0         0         0         0         0         0
         0         0         0         0         0         0         0         0
         0         0         0         0         0         0         0         0
         0         0         0         0         0         0         0         0
         0         0         0         0         0         0         0         0
         0         0         0         0         0         0         0         0
         0         0         0         0         0         0         0         0
         0         0         0         0         0         0         0         0
         0         0         0         0         0         0         0         0
         0         0         0         0         0         0         0         0
         0         0         0         0         0         0         0         0
         0         0         0         0         0         0         0         0
         0         0         0         0         0         0         0         0
         0         0         0         0         0         0         0         0
         0         0         0         0         0         0         0         0
         0         0         0         0         0         0         0         0
         0         0         0         0         0         0         0         0
         0         0         0         0         0         0         0         0
         0         0         0         0         0         0         0         0
         0         0         0         0         0         0         0         0
         0         0         0         0         0         0         0         0
         0         0         0         0         0         0         0         0
         0         0         0         0         0         0         0         0
         0         0         0         0         0         0         0         0
         0         0         0         0         0         0         0         0
         0         0         0         0         0         0         0         0
         0         0         0         0         0         0         0         0
         0         0         0         0         0         0         0         0
         0         0         0         0         0         0         0         0
         0         0         0         0         0         0         0         0
         0         0         0         0         0         0         0         0
         0         0         0         0         0         0         0         0
         0         0         0         0         0         0         0         0
         0         0         0         0         0         0         0         0
         0         0         0         0         0         0         0         0
         0         0         0         0         0         0         0         0
         0         0         0         0         0         0         0         0
         0         0         0         0         0         0         0         0
         0         0         0         0         0         0         0         0
         0         0         0         0         0         0         0         0
         0         0         0         0         0         0         0         0
         0         0         0         0         0         0         0         0
         0         0         0         0         0         0         0         0
         0         0         0         0         0         0         0         0
         0         0         0         0         0         0         0         0
         0         0         0         0         0         0         0         0
         0         0         0         0         0         0         0         0
         0         0         0         0         0         0         0         0
         0         0         0         0         0         0         0         0
         0         0         0         0         0         0         0         0
         0         0         0         0         0         0         0         0
         0         0         0         0         0         0         0         0
         0         0         0         0         0         0         0         0
         0         0         0         0         0         0         0         0
         0         0         0         0         0         0         0         0
         0         0         0         0         0         0         0         0
         0         0         0         0         0         0         0         0
         0         0         0         0         0         0         0         0
         0         0         0         0         0         0         0         0
         0         0         0         0         0         0         0         0
         0         0         0         0         0         0         0         0
         0         0         0         0         0         0         0         0
         0         0         0         0         0         0         0         0
         0         0         0         0         0         0         0         0
         0         0         0         0         0         0         0         0
         0         0         0         0         0         0         0         0
         0         0         0         0         0         0         0         0
         0         0         0         0         0         0         0         0
         0         0         0         0         0         0         0         0
         0         0         0         0         0         0         0         0
         0         0         0         0         0         0         0         0
         0         0         0         0         0         0         0         0
         0         0         0         0         0         0         0         0
         0         0         0         0         0         0         0         0
         0         0         0         0         0         0         0         0
         0         0         0         0         0         0         0         0
         0         0         0         0         0         0         0         0
         0         0         0         0         0         0         0         0
         0         0         0         0         0         0         0         0
         0         0         0         0         0         0         0         0
         0         0         0         0         0         0         0         0
         0         0         0         0         0         0         0         0
         0         0         0         0         0         0         0         0
         0         0         0         0         0         0         0         0
         0         0         0         0         0         0         0         0
         0         0         0         0         0         0         0         0
         0         0         0         0         0         0         0         0
         0         0         0         0         0         0         0         0
         0         0         0         0         0         0         0         0
         0         0         0         0         0         0         0         0
         0         0         0         0         0         0         0         0
         0         0         0         0         0         0         0         0
         0         0         0         0         0         0         0         0
         0         0         0         0         0         0         0         0
         0         0         0         0         0         0         0         0
         0         0         0         0         0         0         0         0
         0         0         0         0         0         0         0         0
         0         0         0         0         0         0         0         0
         0         0         0         0         0         0         0         0
         0         0         0         0         0         0         0         0
         0         0         0         0         0         0         0         0
         0         0         0         0         0         0         0         0
         0         0         0         0         0         0         0         0
         0         0         0         0         0         0         0         0
         0         0         0         0         0         0         0         0
         0         0         0         0         0         0         0         0
         0         0         0         0         0         0         0         0
         0         0         0         0         0         0         0         0
         0         0         0         0         0         0         0         0
         0         0         0         0         0         0         0         0
         0         0         0         0         0         0         0         0
         0         0         0         0         0         0         0         0
         0         0         0         0         0         0         0         0
         0         0         0         0         0         0         0         0
         0         0         0         0         0         0         0         0
         0         0         0         0         0         0         0         0
         0         0         0         0         0         0         0         0
         0         0         0         0         0         0         0         0
         0         0         0         0         0         0         0         0
         0         0         0         0         0         0         0         0
         0         0         0         0         0         0         0         0
         0         0         0         0         0         0         0         0
         0         0         0         0         0         0         0         0
         0         0         0         0         0         0         0         0
         0         0         0         0         0         0         0         0
         0         0         0         0         0         0         0         0
         0         0         0         0         0         0         0         0
         0         0         0         0         0         0         0         0
         0         0         0         0         0         0         0         0
         0         0         0         0         0         0         0         0
         0         0         0         0         0         0         0         0
         0         0         0         0         0         0         0         0
         0         0         0         0         0         0         0         0
         0         0         0         0         0         0         0         0
         0         0         0         0         0         0         0         0
         0         0         0         0         0         0         0         0
         0         0         0         0         0         0         0         0
         0         0         0         0         0         0         0         0
         0         0         0         0         0         0         0         0
         0         0         0         0         0         0         0         0
         0         0         0         0         0         0         0         0
         0         0         0         0         0         0         0         0
         0         0         0         0         0         0         0         0
         0         0         0         0         0         0         0         0
         0         0         0         0         0         0         0         0
         0         0         0         0         0         0         0         0
         0         0         0         0         0         0         0         0
         0         0         0         0         0         0         0         0
         0         0         0         0         0         0         0         0
         0         0         0         0         0         0         0         0
         0         0         0         0         0         0         0         0
         0         0         0         0         0         0         0         0
         0         0         0         0         0         0         0         0
         0         0         0         0         0         0         0         0
         0         0         0         0         0         0         0         0
         0         0         0         0         0         0         0         0
         0         0         0         0         0         0         0         0
         0         0         0         0         0         0         0         0
         0         0         0         0         0         0         0         0
         0         0         0         0         0         0         0         0
         0         0         0         0         0         0         0         0
         0         0         0         0         0         0         0         0
         0         0         0         0         0         0         0         0
         0         0         0         0         0         0         0         0
         0         0         0         0         0         0         0         0
         0         0         0         0         0         0         0         0
         0         0         0         0         0         0         0         0
         0         0         0         0         0         0         0         0
         0         0         0         0         0         0         0         0
         0         0         0         0         0         0         0         0
         0         0         0         0         0         0         0         0
         0         0         0         0         0         0         0         0
         0         0         0         0         0         0         0         0
         0         0         0         0         0         0         0         0
         0         0         0         0         0         0         0         0
         0         0         0         0         0         0         0         0
         0         0         0         0         0         0         0         0
         0         0         0         0         0         0         0         0
         0         0         0         0         0         0         0         0
         0         0         0         0         0         0         0         0
         0         0         0         0         0         0         0         0
         0         0         0         0         0         0         0         0
         0         0         0         0         0         0         0         0
         0         0         0         0         0         0         0         0
         0         0         0         0         0         0         0         0
         0         0         0         0         0         0         0         0
         0         0         0         0         0         0         0         0
         0         0         0         0         0         0         0         0
         0         0         0         0         0         0         0         0
         0         0         0         0         0         0         0         0
         0         0         0         0         0         0         0         0
         0         0         0         0         0         0         0         0
         0         0         0         0         0         0         0         0
         0         0         0         0         0         0         0         0
         0         0         0         0         0         0         0         0
         0         0         0         0         0         0         0         0
         0         0         0         0         0         0         0         0
         0         0         0         0         0         0         0         0
         0         0         0         0         0         0         0         0
         0         0         0         0         0         0         0         0
         0         0         0         0         0         0         0         0
         0         0         0         0         0         0         0         0
         0         0         0         0         0         0         0         0
         0         0         0         0         0         0         0         0
         0         0         0         0         0         0         0         0
         0         0         0         0         0         0         0         0
         0         0         0         0         0         0         0         0
         0         0         0         0         0         0         0         0
         0         0         0         0         0         0         0         0
         0         0         0         0         0         0         0         0
         0         0         0         0         0         0         0         0
         0         0         0         0         0         0         0         0
         0         0         0         0         0         0         0         0
         0         0         0         0         0         0         0         0
         0         0         0         0         0         0         0         0
         0         0         0         0         0         0         0         0
         0         0         0         0         0         0         0         0
         0         0         0         0         0         0         0         0
         0         0         0         0         0         0         0         0
         0         0         0         0         0         0         0         0
         0         0         0         0         0         0         0         0
         0         0         0         0         0         0         0         0
         0         0         0         0         0         0         0         0
         0         0         0         0         0         0         0         0
         0         0         0         0         0         0         0         0
         0         0         0         0         0         0         0         0
         0         0         0         0         0         0         0         0
         0         0         0         0         0         0         0         0
         0         0         0         0         0         0         0         0
         0         0         0         0         0         0         0         0
         0         0         0         0         0         0         0         0
         0         0         0         0         0         0         0         0
         0         0         0         0         0         0         0         0
         0         0         0         0         0         0         0         0
         0         0         0         0         0         0         0         0
         0         0         0         0         0         0         0         0
         0         0         0         0         0         0         0         0
         0         0         0         0         0         0         0         0
         0         0         0         0         0         0         0         0
         0         0         0         0         0         0         0         0
         0         0         0         0         0         0         0         0
         0         0         0         0         0         0         0         0
         0         0         0         0         0         0         0         0
         0         0         0         0         0         0         0         0
         0         0         0         0         0         0         0         0
         0         0         0         0         0         0         0         0
         0         0         0         0         0         0         0         0
         0         0         0         0         0         0         0         0
         0         0         0         0         0         0         0         0
         0         0         0         0         0         0         0         0
         0         0         0         0         0         0         0         0
         0         0         0         0         0         0         0         0
         0         0         0         0         0         0         0         0
         0         0         0         0         0         0         0         0
         0         0         0         0         0         0         0         0
         0         0         0         0         0         0         0         0
         0         0         0         0         0         0         0         0
         0         0         0         0         0         0         0         0
         0         0         0         0         0         0         0         0
         0         0         0         0         0         0         0         0
         0         0         0         0         0         0         0         0
         0         0         0         0         0         0         0         0
         0         0         0         0         0         0         0         0
         0         0         0         0         0         0         0         0
         0         0         0         0         0         0         0         0
         0         0         0         0         0         0         0         0
         0         0         0         0         0         0         0         0
         0         0         0         0         0         0         0         0
         0         0         0         0         0         0         0         0
         0         0         0         0         0         0         0         0
         0         0         0         0         0         0         0         0
         0         0         0         0         0         0         0         0
         0         0         0         0         0         0         0         0
         0         0         0         0         0         0         0         0
         0         0         0         0         0         0         0         0
         0         0         0         0         0         0         0         0
         0         0         0         0         0         0         0         0
         0         0         0         0         0         0         0         0
         0         0         0         0         0         0         0         0
         0         0         0         0         0         0         0         0
         0         0         0         0         0         0         0         0
         0         0         0         0         0         0         0         0
         0         0         0         0         0         0         0         0
         0         0         0         0         0         0         0         0
         0         0         0         0         0         0         0         0
         0         0         0         0         0         0         0         0
         0         0         0         0         0         0         0         0
         0         0         0         0         0         0         0         0
         0         0         0         0         0         0         0         0
         0         0         0         0         0         0         0         0
         0         0         0         0         0         0         0         0
         0         0         0         0         0         0         0         0
         0         0         0         0         0         0         0         0
         0         0         0         0         0         0         0         0
         0         0         0         0         0         0         0         0
         0         0         0         0         0         0         0         0
         0         0         0         0         0         0         0         0
         0         0         0         0         0         0         0         0
         0         0         0         0         0         0         0         0
         0         0         0         0         0         0         0         0
         0         0         0         0         0         0         0         0
         0         0         0         0         0         0         0         0
         0         0         0         0         0         0         0         0
         0         0         0         0         0         0         0         0
         0         0         0         0         0         0         0         0
         0         0         0         0         0         0         0         0
         0         0         0         0         0         0         0         0
         0         0         0         0         0         0         0         0
         0         0         0         0         0         0         0         0
         0         0         0         0         0         0         0         0
         0         0         0         0         0         0         0         0
         0         0         0         0         0         0         0         0
         0         0         0         0         0         0         0         0
         0         0         0         0         0         0         0         0
         0         0         0         0         0         0         0         0
         0         0         0         0         0         0         0         0
         0         0         0         0         0         0         0         0
         0         0         0         0         0         0         0         0
         0         0         0         0         0         0         0         0
         0         0         0         0         0         0         0         0
         0         0         0         0         0         0         0         0
         0         0         0         0         0         0         0         0
         0         0         0         0         0         0         0         0
         0         0         0         0         0         0         0         0
         0         0         0         0         0         0         0         0
         0         0         0         0         0         0         0         0
         0         0         0         0         0         0         0         0
         0         0         0         0         0         0         0         0
         0         0         0         0         0         0         0         0
         0         0         0         0         0         0         0         0
         0         0         0         0         0         0         0         0
         0         0         0         0         0         0         0         0
         0         0         0         0         0         0         0         0
         0         0         0         0         0         0         0         0
         0         0         0         0         0         0         0         0
         0         0         0         0         0         0         0         0
         0         0         0         0         0         0         0         0
         0         0         0         0         0         0         0         0
         0         0         0         0         0         0         0         0
         0         0         0         0         0         0         0         0
         0         0         0         0         0         0         0         0
         0         0         0         0         0         0         0         0
         0         0         0         0         0         0         0         0
         0         0         0         0         0         0         0         0
         0         0         0         0         0         0         0         0
         0         0         0         0         0         0         0         0
         0         0         0         0         0         0         0         0
         0         0         0         0         0         0         0         0
         0         0         0         0         0         0         0         0
         0         0         0         0         0         0         0         0
         0         0         0         0         0         0         0         0
         0         0         0         0         0         0         0         0
         0         0         0         0         0         0         0         0
         0         0         0         0         0         0         0         0
         0         0         0         0         0         0         0         0
         0         0         0         0         0         0         0         0
         0         0         0         0         0         0         0         0
         0         0         0         0         0         0         0         0
         0         0         0         0         0         0         0         0
         0         0         0         0         0         0         0         0
         0         0         0         0         0         0         0         0
         0         0         0         0         0         0         0         0
         0         0         0         0         0         0         0         0
         0         0         0         0         0         0         0         0
         0         0         0         0         0         0         0         0
         0         0         0         0         0         0         0         0
         0         0         0         0         0         0         0         0
         0         0         0         0         0         0         0         0
         0         0         0         0         0         0         0         0
         0         0         0         0         0         0         0         0
         0         0         0         0         0         0         0         0
         0         0         0         0         0         0         0         0
         0         0         0         0         0         0         0         0
         0         0         0         0         0         0         0         0
         0         0         0         0         0         0         0         0
         0         0         0         0         0         0         0         0
         0         0         0         0         0         0         0         0
         0         0         0         0         0         0         0         0
         0         0         0         0         0         0         0         0
         0         0         0         0         0         0         0         0
         0         0         0         0         0         0         0         0
         0         0         0         0         0         0         0         0
         0         0         0         0         0         0         0         0
         0         0         0         0         0         0         0         0
         0         0         0         0         0         0         0         0
         0         0         0         0         0         0         0         0
         0         0         0         0         0         0         0         0
         0         0         0         0         0         0         0         0
         0         0         0         0         0         0         0         0
         0         0         0         0         0         0         0         0
         0         0         0         0         0         0         0         0
         0         0         0         0         0         0         0         0
         0         0         0         0         0         0         0         0
         0         0         0         0         0         0         0         0
         0         0         0         0         0         0         0         0
         0         0         0         0         0         0         0         0
         0         0         0         0         0         0         0         0
         0         0         0         0         0         0         0         0
         0         0         0         0         0         0         0         0
         0         0         0         0         0         0         0         0
         0         0         0         0         0         0         0         0
         0         0         0         0         0         0         0         0
         0         0         0         0         0         0         0         0
         0         0         0         0         0         0         0         0
         0         0         0         0         0         0         0         0
         0         0         0         0         0         0         0         0
         0         0         0         0         0         0         0         0
         0         0         0         0         0         0         0         0
         0         0         0         0         0         0         0         0
         0         0         0         0         0         0         0         0
         0         0         0         0         0         0         0         0
         0         0         0         0         0         0         0         0
         0         0         0         0         0         0         0         0
         0         0         0         0         0         0         0         0
         0         0         0         0         0         0         0         0
         0         0         0         0         0         0         0         0
         0         0         0         0         0         0         0         0
         0         0         0         0         0         0         0         0
         0         0         0         0         0         0         0         0
         0         0         0         0         0         0         0         0
         0         0         0         0         0         0         0         0
         0         0         0         0         0         0         0         0
         0         0         0         0         0         0         0         0
         0         0         0         0         0         0         0         0
         0         0         0         0         0         0         0         0
         0         0         0         0         0         0         0         0
         0         0         0         0         0         0         0         0
         0         0         0         0         0         0         0         0
         0         0         0         0         0         0         0         0
         0         0         0         0         0         0         0         0
         0         0         0         0         0         0         0         0
         0         0         0         0         0         0         0         0
         0         0         0         0         0         0         0         0
         0         0         0         0         0         0         0         0
         0         0         0         0         0         0         0         0
         0         0         0         0         0         0         0         0
         0         0         0         0         0         0         0         0
         0         0         0         0         0         0         0         0
         0         0         0         0         0         0         0         0
         0         0         0         0         0         0         0         0
         0         0         0         0         0         0         0         0
         0         0         0         0         0         0         0         0
         0         0         0         0         0         0         0         0
         0         0         0         0         0         0         0         0
         0         0         0         0         0         0         0         0
         0         0         0         0         0         0         0         0
         0         0         0         0         0         0         0         0
         0         0         0         0         0         0         0         0
         0         0         0         0         0         0         0         0
         0         0         0         0         0         0         0         0
         0         0         0         0         0         0         0         0
         0         0         0         0         0         0         0         0
         0         0         0         0         0         0         0         0
         0         0         0         0         0         0         0         0
         0         0         0         0         0         0         0         0
         0         0         0         0         0         0         0         0
         0         0         0         0         0         0         0         0
         0         0         0         0         0         0         0         0
         0         0         0         0         0         0         0         0
         0         0         0         0         0         0         0         0
         0         0         0         0         0         0         0         0
         0         0         0         0         0         0         0         0
         0         0         0         0         0         0         0         0
         0         0         0         0         0         0         0         0
         0         0         0         0         0         0         0         0
         0         0         0         0         0         0         0         0
         0         0         0         0         0         0         0         0
         0         0         0         0         0         0         0         0
         0         0         0         0         0         0         0         0
         0         0         0         0         0         0         0         0
         0         0         0         0         0         0         0         0
         0         0         0         0         0         0         0         0
         0         0         0         0         0         0         0         0
         0         0         0         0         0         0         0         0
         0         0         0         0         0         0         0         0
         0         0         0         0         0         0         0         0
         0         0         0         0         0         0         0         0
         0         0         0         0         0         0         0         0
         0         0         0         0         0         0         0         0
         0         0         0         0         0         0         0         0
         0         0         0         0         0         0         0         0
         0         0         0         0         0         0         0         0
         0         0         0         0         0         0         0         0
         0         0         0         0         0         0         0         0
         0         0         0         0         0         0         0         0
         0         0         0         0         0         0         0         0
         0         0         0         0         0         0         0         0
         0         0         0         0         0         0         0         0
         0         0         0         0         0         0         0         0
         0         0         0         0         0         0         0         0
         0         0         0         0         0         0         0         0
         0         0         0         0         0         0         0         0
         0         0         0         0         0         0         0         0
         0         0         0         0         0         0         0         0
         0         0         0         0         0         0         0         0
         0         0         0         0         0         0         0         0
         0         0         0         0         0         0         0         0
         0         0         0         0         0         0         0         0
         0         0         0         0         0         0         0         0
         0         0         0         0         0         0         0         0
         0         0         0         0         0         0         0         0
         0         0         0         0         0         0         0         0
         0         0         0         0         0         0         0         0
         0         0         0         0         0         0         0         0
         0         0         0         0         0         0         0         0
         0         0         0         0         0         0         0         0
         0         0         0         0         0         0         0         0
         0         0         0         0         0         0         0         0
         0         0         0         0         0         0         0         0
         0         0         0         0         0         0         0         0
         0         0         0         0         0         0         0         0
         0         0         0         0         0         0         0         0
         0         0         0         0         0         0         0         0
         0         0         0         0         0         0         0         0
         0         0         0         0         0         0         0         0
         0         0         0         0         0         0         0         0
         0         0         0         0         0         0         0         0
         0         0         0         0         0         0         0         0
         0         0         0         0         0         0         0         0
         0         0         0         0         0         0         0         0
         0         0         0         0         0         0         0         0
         0         0         0         0         0         0         0         0
         0         0         0         0         0         0         0         0
         0         0         0         0         0         0         0         0
         0         0         0         0         0         0         0         0
         0         0         0         0         0         0         0         0
         0         0         0         0         0         0         0         0
         0         0         0         0         0         0         0         0
         0         0         0         0         0         0         0         0
         0         0         0         0         0         0         0         0
         0         0         0         0         0         0         0         0
         0         0         0         0         0         0         0         0
         0         0         0         0         0         0         0         0
         0         0         0         0         0         0         0         0
         0         0         0         0         0         0         0         0
         0         0         0         0         0         0         0         0
         0         0         0         0         0         0         0         0
         0         0         0         0         0         0         0         0
         0         0         0         0         0         0         0         0
         0         0         0         0         0         0         0         0
         0         0         0         0         0         0         0         0
         0         0         0         0         0         0         0         0
         0         0         0         0         0         0         0         0
         0         0         0         0         0         0         0         0
         0         0         0         0         0         0         0         0
         0         0         0         0         0         0         0         0
         0         0         0         0         0         0         0         0
         0         0         0         0         0         0         0         0
         0         0         0         0         0         0         0         0
         0         0         0         0         0         0         0         0
         0         0         0         0         0         0         0         0
         0         0         0         0         0         0         0         0
         0         0         0         0         0         0         0         0
         0         0         0         0         0         0         0         0
         0         0         0         0         0         0         0         0
         0         0         0         0         0         0         0         0
         0         0         0         0         0         0         0         0
         0         0         0         0         0         0         0         0
         0         0         0         0         0         0         0         0
         0         0         0         0         0         0         0         0
         0         0         0         0         0         0         0         0
         0         0         0         0         0         0         0         0
         0         0         0         0         0         0         0         0
         0         0         0         0         0         0         0         0
         0         0         0         0         0         0         0         0
         0         0         0         0         0         0         0         0
         0         0         0         0         0         0         0         0
         0         0         0         0         0         0         0         0
         0         0         0         0         0         0         0         0
         0         0         0         0         0         0         0         0
         0         0         0         0         0         0         0         0
         0         0         0         0         0         0         0         0
         0         0         0         0         0         0         0         0
         0         0         0         0         0         0         0         0
         0         0         0         0         0         0         0         0
         0         0         0         0         0         0         0         0
         0         0         0         0         0         0         0         0
         0         0         0         0         0         0         0         0
         0         0         0         0         0         0         0         0
         0         0         0         0         0         0         0         0
         0         0         0         0         0         0         0         0
         0         0         0         0         0         0         0         0
         0         0         0         0         0         0         0         0
         0         0         0         0         0         0         0         0
         0         0         0         0         0         0         0         0
         0         0         0         0         0         0         0         0
         0         0         0         0         0         0         0         0
         0         0         0         0         0         0         0         0
         0         0         0         0         0         0         0         0
         0         0         0         0         0         0         0         0
         0         0         0         0         0         0         0         0
         0         0         0         0         0         0         0         0
         0         0         0         0         0         0         0         0
         0         0         0         0         0         0         0         0
         0         0         0         0         0         0         0         0
         0         0         0         0         0         0         0         0
         0         0         0         0         0         0         0         0
         0         0         0         0         0         0         0         0
         0         0         0         0         0         0         0         0
         0         0         0         0         0         0         0         0
         0         0         0         0         0         0         0         0
         0         0         0         0         0         0         0         0
         0         0         0         0         0         0         0         0
         0         0         0         0         0         0         0         0
         0         0         0         0         0         0         0         0
         0         0         0         0         0         0         0         0
         0         0         0         0         0         0         0         0
         0         0         0         0         0         0         0         0
         0         0         0         0         0         0         0         0
         0         0         0         0         0         0         0         0
         0         0         0         0         0         0         0         0
         0         0         0         0         0         0         0         0
         0         0         0         0         0         0         0         0
         0         0         0         0         0         0         0         0
         0         0         0         0         0         0         0         0
         0         0         0         0         0         0         0         0
         0         0         0         0         0         0         0         0
         0         0         0         0         0         0         0         0
         0         0         0         0         0         0         0         0
         0         0         0         0         0         0         0         0
         0         0         0         0         0         0         0         0
         0         0         0         0         0         0         0         0
         0         0         0         0         0         0         0         0
         0         0         0         0         0         0         0         0
         0         0         0         0         0         0         0         0
         0         0         0         0         0         0         0         0
         0         0         0         0         0         0         0         0
         0         0         0         0         0         0         0         0
         0         0         0         0         0         0         0         0
         0         0         0         0         0         0         0         0
         0         0         0         0         0         0         0         0
         0         0         0         0         0         0         0         0
         0         0         0         0         0         0         0         0
         0         0         0         0         0         0         0         0
         0         0         0         0         0         0         0         0
         0         0         0         0         0         0         0         0
         0         0         0         0         0         0         0         0
         0         0         0         0         0         0         0         0
         0         0         0         0         0         0         0         0
         0         0         0         0         0         0         0         0
         0         0         0         0         0         0         0         0
         0         0         0         0         0         0         0         0
         0         0         0         0         0         0         0         0
         0         0         0         0         0         0         0         0
         0         0         0         0         0         0         0         0
         0         0         0         0         0         0         0         0
         0         0         0         0         0         0         0         0
         0         0         0         0         0         0         0         0
         0         0         0         0         0         0         0         0
         0         0         0         0         0         0         0         0
         0         0         0         0         0         0         0         0
         0         0         0         0         0         0         0         0
         0         0         0         0         0         0         0         0
         0         0         0         0         0         0         0         0
         0         0         0         0         0         0         0         0
         0         0         0         0         0         0         0         0
         0         0         0         0         0         0         0         0
         0         0         0         0         0         0         0         0
         0         0         0         0         0         0         0         0
         0         0         0         0         0         0         0         0
         0         0         0         0         0         0         0         0
         0         0         0         0         0         0         0         0
         0         0         0         0         0         0         0         0
         0         0         0         0         0         0         0         0
         0         0         0         0         0         0         0         0
         0         0         0         0         0         0         0         0
         0         0         0         0         0         0         0         0
         0         0         0         0         0         0         0         0
         0         0         0         0         0         0         0         0
         0         0         0         0         0         0         0         0
         0         0         0         0         0         0         0         0
         0         0         0         0         0         0         0         0
         0         0         0         0         0         0         0         0
         0         0         0         0         0         0         0         0
         0         0         0         0         0         0         0         0
         0         0         0         0         0         0         0         0
         0         0         0         0         0         0         0         0
         0         0         0         0         0         0         0         0
         0         0         0         0         0         0         0         0
         0         0         0         0         0         0         0         0
         0         0         0         0         0         0         0         0
         0         0         0         0         0         0         0         0
         0         0         0         0         0         0         0         0
         0         0         0         0         0         0         0         0
         0         0         0         0         0         0         0         0
         0         0         0         0         0         0         0         0
         0         0         0         0         0         0         0         0
         0         0         0         0         0         0         0         0
         0         0         0         0         0         0         0         0
         0         0         0         0         0         0         0         0
         0         0         0         0         0         0         0         0
         0         0         0         0         0         0         0         0
         0         0         0         0         0         0         0         0
         0         0         0         0         0         0         0         0
         0         0         0         0         0         0         0         0
         0         0         0         0         0         0         0         0
         0         0         0         0         0         0         0         0
         0         0         0         0         0         0         0         0
         0         0         0         0         0         0         0         0
         0         0         0         0         0         0         0         0
         0         0         0         0         0         0         0         0
         0         0         0         0         0         0         0         0
         0         0         0         0         0         0         0         0
         0         0         0         0         0         0         0         0
         0         0         0         0         0         0         0         0
         0         0         0         0         0         0         0         0
         0         0         0         0         0         0         0         0
         0         0         0         0         0         0         0         0
         0         0         0         0         0         0         0         0
         0         0         0         0         0         0         0         0
         0         0         0         0         0         0         0         0
         0         0         0         0         0         0         0         0
         0         0         0         0         0         0         0         0
         0         0         0         0         0         0         0         0
         0         0         0         0         0         0         0         0
         0         0         0         0         0         0         0         0
         0         0         0         0         0         0         0         0
         0         0         0         0         0         0         0         0
         0         0         0         0         0         0         0         0
         0         0         0         0         0         0         0         0
         0         0         0         0         0         0         0         0
         0         0         0         0         0         0         0         0
         0         0         0         0         0         0         0         0
         0         0         0         0         0         0         0         0
         0         0         0         0         0         0         0         0
         0         0         0         0         0         0         0         0
         0         0         0         0         0         0         0         0
         0         0         0         0         0         0         0         0
         0         0         0         0         0         0         0         0
         0         0         0         0         0         0         0         0
         0         0         0         0         0         0         0         0
         0         0         0         0         0         0         0         0
         0         0         0         0         0         0         0         0
         0         0         0         0         0         0         0         0
         0         0         0         0         0         0         0         0
         0         0         0         0         0         0         0         0
         0         0         0         0         0         0         0         0
         0         0         0         0         0         0         0         0
         0         0         0         0         0         0         0         0
         0         0         0         0         0         0         0         0
         0         0         0         0         0         0         0         0
         0         0         0         0         0         0         0         0
         0         0         0         0         0         0         0         0
         0         0         0         0         0         0         0         0
         0         0         0         0         0         0         0         0
         0         0         0         0         0         0         0         0
         0         0         0         0         0         0         0         0
         0         0         0         0         0         0         0         0
         0         0         0         0         0         0         0         0
         0         0         0         0         0         0         0         0
         0         0         0         0         0         0         0         0
         0         0         0         0         0         0         0         0
         0         0         0         0         0         0         0         0
         0         0         0         0         0         0         0         0
         0         0         0         0         0         0         0         0
         0         0         0         0         0         0         0         0
         0         0         0         0         0         0         0         0
         0         0         0         0         0         0         0         0
         0         0         0         0         0         0         0         0
         0         0         0         0         0         0         0         0
         0         0         0         0         0         0         0         0
         0         0         0         0         0         0         0         0
         0         0         0         0         0         0         0         0
         0         0         0         0         0         0         0         0
         0         0         0         0         0         0         0         0
         0         0         0         0         0         0         0         0
         0         0         0         0         0         0         0         0
         0         0         0         0         0         0         0         0
         0         0         0         0         0         0         0         0
         0         0         0         0         0         0         0         0
         0         0         0         0         0         0         0         0
         0         0         0         0         0         0         0         0
         0         0         0         0         0         0         0         0
         0         0         0         0         0         0         0         0
         0         0         0         0         0         0         0         0
         0         0         0         0         0         0         0         0
         0         0         0         0         0         0         0         0
         0         0         0         0         0         0         0         0
         0         0         0         0         0         0         0         0
         0         0         0         0         0         0         0         0
         0         0         0         0         0         0         0         0
         0         0         0         0         0         0         0         0
         0         0         0         0         0         0         0         0
         0         0         0         0         0         0         0         0
         0         0         0         0         0         0         0         0
         0         0         0         0         0         0         0         0
         0         0         0         0         0         0         0         0
         0         0         0         0         0         0         0         0
         0         0         0         0         0         0         0         0
         0         0         0         0         0         0         0         0
         0         0         0         0         0         0         0         0
         0         0         0         0         0         0         0         0
         0         0         0         0         0         0         0         0
         0         0         0         0         0         0         0         0
         0         0         0         0         0         0         0         0
         0         0         0         0         0         0         0         0
         0         0         0         0         0         0         0         0
         0         0         0         0         0         0         0         0
         0         0         0         0         0         0         0         0
         0         0         0         0         0         0         0         0
         0         0         0         0         0         0         0         0
         0         0         0         0         0         0         0         0
         0         0         0         0         0         0         0         0
         0         0         0         0         0         0         0         0
         0         0         0         0         0         0         0         0
         0         0         0         0         0         0         0         0
         0         0         0         0         0         0         0         0
         0         0         0         0         0         0         0         0
         0         0         0         0         0         0         0         0
         0         0         0         0         0         0         0         0
         0         0         0         0         0         0         0         0
         0         0         0         0         0         0         0         0
         0         0         0         0         0         0         0         0
         0         0         0         0         0         0         0         0
         0         0         0         0         0         0         0         0
         0         0         0         0         0         0         0         0
         0         0         0         0         0         0         0         0
         0         0         0         0         0         0         0         0
         0         0         0         0         0         0         0         0
         0         0         0         0         0         0         0         0
         0         0         0         0         0         0         0         0
         0         0         0         0         0         0         0         0
         0         0         0         0         0         0         0         0
         0         0         0         0         0         0         0         0
         0         0         0         0         0         0         0         0
         0         0         0         0         0         0         0         0
         0         0         0         0         0         0         0         0
         0         0         0         0         0         0         0         0
         0         0         0         0         0         0         0         0
         0         0         0         0         0         0         0         0
         0         0         0         0         0         0         0         0
         0         0         0         0         0         0         0         0
         0         0         0         0         0         0         0         0
         0         0         0         0         0         0         0         0
         0         0         0         0         0         0         0         0
         0         0         0         0         0         0         0         0
         0         0         0         0         0         0         0         0
         0         0         0         0         0         0         0         0
         0         0         0         0         0         0         0         0
         0         0         0         0         0         0         0         0
         0         0         0         0         0         0         0         0
         0         0         0         0         0         0         0         0
         0         0         0         0         0         0         0         0
         0         0         0         0         0         0         0         0
         0         0         0         0         0         0         0         0
         0         0         0         0         0         0         0         0
         0         0         0         0         0         0         0         0
         0         0         0         0         0         0         0         0
         0         0         0         0         0         0         0         0
         0         0         0         0         0         0         0         0
         0         0         0         0         0         0         0         0
         0         0         0         0         0         0         0         0
         0         0         0         0         0         0         0         0
         0         0         0         0         0         0         0         0
         0         0         0         0         0         0         0         0
         0         0         0         0         0         0         0         0
         0         0         0         0         0         0         0         0
         0         0         0         0         0         0         0         0
         0         0         0         0         0         0         0         0
         0         0         0         0         0         0         0         0
         0         0         0         0         0         0         0         0
         0         0         0         0         0         0         0         0
         0         0         0         0         0         0         0         0
         0         0         0         0         0         0         0         0
         0         0         0         0         0         0         0         0
         0         0         0         0         0         0         0         0
         0         0         0         0         0         0         0         0
         0         0         0         0         0         0         0         0
         0         0         0         0         0         0         0         0
         0         0         0         0         0         0         0         0
         0         0         0         0         0         0         0         0
         0         0         0         0         0         0         0         0
         0         0         0         0         0         0         0         0
         0         0         0         0         0         0         0         0
         0         0         0         0         0         0         0         0
         0         0         0         0         0         0         0         0
         0         0         0         0         0         0         0         0
         0         0         0         0         0         0         0         0
         0         0         0         0         0         0         0         0
         0         0         0         0         0         0         0         0
         0         0         0         0         0         0         0         0
         0         0         0         0         0         0         0         0
         0         0         0         0         0         0         0         0
         0         0         0         0         0         0         0         0
         0         0         0         0         0         0         0         0
         0         0         0         0         0         0         0         0
         0         0         0         0         0         0         0         0
         0         0         0         0         0         0         0         0
         0         0         0         0         0         0         0         0
         0         0         0         0         0         0         0         0
         0         0         0         0         0         0         0         0
         0         0         0         0         0         0         0         0
         0         0         0         0         0         0         0         0
         0         0         0         0         0         0         0         0
         0         0         0         0         0         0         0         0
         0         0         0         0         0         0         0         0
         0         0         0         0         0         0         0         0
         0         0         0         0         0         0         0         0
         0         0         0         0         0         0         0         0
         0         0         0         0         0         0         0         0
         0         0         0         0         0         0         0         0
         0         0         0         0         0         0         0         0
         0         0         0         0         0         0         0         0
         0         0         0         0         0         0         0         0
         0         0         0         0         0         0         0         0
         0         0         0         0         0         0         0         0
         0         0         0         0         0         0         0         0
         0         0         0         0         0         0         0         0
         0         0         0         0         0         0         0         0
         0         0         0         0         0         0         0         0
         0         0         0         0         0         0         0         0
         0         0         0         0         0         0         0         0
         0         0         0         0         0         0         0         0
         0         0         0         0         0         0         0         0
         0         0         0         0         0         0         0         0
         0         0         0         0         0         0         0         0
         0         0         0         0         0         0         0         0
         0         0         0         0         0         0         0         0
         0         0         0         0         0         0         0         0
         0         0         0         0         0         0         0         0
         0         0         0         0         0         0         0         0
         0         0         0         0         0         0         0         0
         0         0         0         0         0         0         0         0
         0         0         0         0         0         0         0         0
         0         0         0         0         0         0         0         0
         0         0         0         0         0         0         0         0
         0         0         0         0         0         0         0         0
         0         0         0         0         0         0         0         0
         0         0         0         0         0         0         0         0
         0         0         0         0         0         0         0         0
         0         0         0         0         0         0         0         0
         0         0         0         0         0         0         0         0
         0         0         0         0         0         0         0         0
         0         0         0         0         0         0         0         0
         0         0         0         0         0         0         0         0
         0         0         0         0         0         0         0         0
         0         0         0         0         0         0         0         0
         0         0         0         0         0         0         0         0
         0         0         0         0         0         0         0         0
         0         0         0         0         0         0         0         0
         0         0         0         0         0         0         0         0
         0         0         0         0         0         0         0         0
         0         0         0         0         0         0         0         0
         0         0         0         0         0         0         0         0
         0         0         0         0         0         0         0         0
         0         0         0         0         0         0         0         0
         0         0         0         0         0         0         0         0
         0         0         0         0         0         0         0         0
         0         0         0         0         0         0         0         0
         0         0         0         0         0         0         0         0
         0         0         0         0         0         0         0         0
         0         0         0         0         0         0         0         0
         0         0         0         0         0         0         0         0
         0         0         0         0         0         0         0         0
         0         0         0         0         0         0         0         0
         0         0         0         0         0         0         0         0
         0         0         0         0         0         0         0         0
         0         0         0         0         0         0         0         0
         0         0         0         0         0         0         0         0
         0         0         0         0         0         0         0         0
         0         0         0         0         0         0         0         0
         0         0         0         0         0         0         0         0
         0         0         0         0         0         0         0         0
         0         0         0         0         0         0         0         0
         0         0         0         0         0         0         0         0
         0         0         0         0         0         0         0         0
         0         0         0         0         0         0         0         0
         0         0         0         0         0         0         0         0
         0         0         0         0         0         0         0         0
         0         0         0         0         0         0         0         0
         0         0         0         0         0         0         0         0
         0         0         0         0         0         0         0         0
         0         0         0         0         0         0         0         0
         0         0         0         0         0         0         0         0
         0         0         0         0         0         0         0         0
         0         0         0         0         0         0         0         0
         0         0         0         0         0         0         0         0
         0         0         0         0         0         0         0         0
         0         0         0         0         0         0         0         0
         0         0         0         0         0         0         0         0
         0         0         0         0         0         0         0         0
         0         0         0         0         0         0         0         0
         0         0         0         0         0         0         0         0
         0         0         0         0         0         0         0         0
         0         0         0         0         0         0         0         0
         0         0         0         0         0         0         0         0
         0         0         0         0         0         0         0         0
         0         0         0         0         0         0         0         0
         0         0         0         0         0         0         0         0
         0         0         0         0         0         0         0         0
         0         0         0         0         0         0         0         0
         0         0         0         0         0         0         0         0
         0         0         0         0         0         0         0         0
         0         0         0         0         0         0         0         0
         0         0         0         0         0         0         0         0
         0         0         0         0         0         0         0         0
         0         0         0         0         0         0         0         0
         0         0         0         0         0         0         0         0
         0         0         0         0         0         0         0         0
         0         0         0         0         0         0         0         0
         0         0         0         0         0         0         0         0
         0         0         0         0         0         0         0         0
         0         0         0         0         0         0         0         0
         0         0         0         0         0         0         0         0
         0         0         0         0         0         0         0         0
         0         0         0         0         0         0         0         0
         0         0         0         0         0         0         0         0
         0         0         0         0         0         0         0         0
         0         0         0         0         0         0         0         0
         0         0         0         0         0         0         0         0
         0         0         0         0         0         0         0         0
         0         0         0         0         0         0         0         0
         0         0         0         0         0         0         0         0
         0         0         0         0         0         0         0         0
         0         0         0         0         0         0         0         0
         0         0         0         0         0         0         0         0
         0         0         0         0         0         0         0         0
         0         0         0         0         0         0         0         0
         0         0         0         0         0         0         0         0
         0         0         0         0         0         0         0         0
         0         0         0         0         0         0         0         0
         0         0         0         0         0         0         0         0
         0         0         0         0         0         0         0

         0         0 !NGRP NST2


         0         0 !NUMLP NUMLPH

         0 !NCRTERM: cross-terms

